% Model:              dipolo.mph
% Version:            COMSOL 5.5.0.292
% Date:               May 14 2020, 14:07
% Dimension:          1
% Nodes:              153
% Expressions:        1
% Description:        Global
% x                       Height
9.2E10                    -3.270000546696256
9.21E10                   -3.0940808115323515
9.22E10                   -2.942763176047993
9.23E10                   -2.8116554502358553
9.24E10                   -2.696976776695348
9.25E10                   -2.595607168154062
9.26E10                   -2.5050783652672806
9.27E10                   -2.423523405385693
9.28E10                   -2.3496005134984714
9.29E10                   -2.2824038998071834
9.3E10                    -2.221370919451192
9.31E10                   -2.1661923619537453
9.32E10                   -2.116730526419141
9.33E10                   -2.0729481264993646
9.34E10                   -2.034849810559728
9.35E10                   -2.002437046567423
9.36E10                   -1.975676229584864
9.37E10                   -1.9544791003198885
9.38E10                   -1.9386939347072012
9.39E10                   -1.9281055126399116
9.4E10                    -1.922441628404754
9.41E10                   -1.9213838740648712
9.42E10                   -1.924580590531186
9.43E10                   -1.9316601961475568
9.44E10                   -1.9422435119361412
9.45E10                   -1.9559541463561234
9.46E10                   -1.972426428117517
9.47E10                   -1.9913107446004097
9.48E10                   -2.012276433003814
9.49E10                   -2.035012573460546
9.5E10                    -2.059227151537129
9.51E10                   -2.084645102949973
9.52E10                   -2.1110057411298517
9.53E10                   -2.138060014699696
9.54E10                   -2.165567962343305
9.55E10                   -2.193296640237026
9.56E10                   -2.2210187028879353
9.57E10                   -2.2485117298702506
9.58E10                   -2.2755583140140936
9.59E10                   -2.301946864242143
9.6E10                    -2.327473029733044
9.61E10                   -2.3519416211533857
9.62E10                   -2.375168887979919
9.63E10                   -2.3969850063108766
9.64E10                   -2.4172366365569276
9.65E10                   -2.4357894224154806
9.66E10                   -2.4525303191306898
9.67E10                   -2.4673696581003384
9.68E10                   -2.4802428746898624
9.69E10                   -2.491111845391831
9.7E10                    -2.4999657983940176

9.2E10                    -6.6269915505682775
9.21E10                   -7.070437091364623
9.22E10                   -7.4815979758344575
9.23E10                   -7.8640688438214665
9.24E10                   -8.225291044706973
9.25E10                   -8.575275973205347
9.26E10                   -8.925304579830389
9.27E10                   -9.286888772170169
9.28E10                   -9.671114417885404
9.29E10                   -10.088352999605043
9.3E10                    -10.548264103450144
9.31E10                   -11.060003123230535
9.32E10                   -11.632572046734651
9.33E10                   -12.27528523063609
9.34E10                   -12.99835645841867
9.35E10                   -13.81364611821544
9.36E10                   -14.735638842926734
9.37E10                   -15.78274817796399
9.38E10                   -16.979033456405197
9.39E10                   -18.356216611370158
9.4E10                    -19.954871800262243
9.41E10                   -21.819114654876405
9.42E10                   -23.95946069775812
9.43E10                   -26.18619447089191
9.44E10                   -27.668675825107446
9.45E10                   -27.23271980978208
9.46E10                   -25.369002182131428
9.47E10                   -23.27333097378525
9.48E10                   -21.395849139542236
9.49E10                   -19.78910284298708
9.5E10                    -18.414925838856725
9.51E10                   -17.227434703496737
9.52E10                   -16.188848477738382
9.53E10                   -15.270346745974393
9.54E10                   -14.450255716757603
9.55E10                   -13.712203264976615
9.56E10                   -13.043690143045616
9.57E10                   -12.435053780702063
9.58E10                   -11.878727509626428
9.59E10                   -11.368709481746638
9.6E10                    -10.900178591450711
9.61E10                   -10.469213877907293
9.62E10                   -10.072587509208217
9.63E10                   -9.70761069539355
9.64E10                   -9.37201808929951
9.65E10                   -9.063880432663362
9.66E10                   -8.781538080716402
9.67E10                   -8.523550041175273
9.68E10                   -8.288654582554285
9.69E10                   -8.075738489037018
9.7E10                    -7.883812786761908

9.2E10                    -8.584919939127279
9.21E10                   -8.784919939127279
9.22E10                   -8.984919939127279
9.23E10                   -9.174323254235933
9.24E10                   -9.401412010688366
9.25E10                   -9.664500984504595
9.26E10                   -9.962606211301882
9.27E10                   -10.29549892132323
9.28E10                   -10.663720269486845
9.29E10                   -11.068568216457278
9.3E10                    -11.512065464920042
9.31E10                   -11.996913611198114
9.32E10                   -12.526433552328609
9.33E10                   -13.104484610332726
9.34E10                   -13.735342240944297
9.35E10                   -14.423491544678075
9.36E10                   -15.17325162554711
9.37E10                   -15.98806697808826
9.38E10                   -16.869157890614346
9.39E10                   -17.812975439627657
9.4E10                    -18.806557306770365
9.41E10                   -19.819666789346524
9.42E10                   -20.793616950297285
9.43E10                   -21.631803975715535
9.44E10                   -22.208305107651878
9.45E10                   -22.41462836549109
9.46E10                   -22.2264046978639
9.47E10                   -21.720935068630606
9.48E10                   -21.023355391449723
9.49E10                   -20.24495753821118
9.5E10                    -19.459401990934623
9.51E10                   -18.707060702940897
9.52E10                   -18.00662653627984
9.53E10                   -17.364582219620413
9.54E10                   -16.781115916996193
9.55E10                   -16.253427557299595
9.56E10                   -15.777474657047641
9.57E10                   -15.348858169217879
9.58E10                   -14.963251810982872
9.59E10                   -14.616594154292912
9.6E10                    -14.305159884260185
9.61E10                   -14.025571394243698
9.62E10                   -13.774782628258253
9.63E10                   -13.550051621066043
9.64E10                   -13.348910008326005
9.65E10                   -13.169133454880031
9.66E10                   -13.008714677180702
9.67E10                   -12.865839563867693
9.68E10                   -12.738866318610063
9.69E10                   -12.62630728762564
9.7E10                    -12.526813041658043
