% Model:              dipolo.mph
% Version:            COMSOL 5.5.0.292
% Date:               May 14 2020, 14:02
% Dimension:          1
% Nodes:              153
% Expressions:        1
% Description:        Global
% x                       Height
9.2E10                    -7.326962854238456
9.21E10                   -7.971365734968771
9.22E10                   -8.582020788022525
9.23E10                   -9.153178894475493
9.24E10                   -9.684913192382016
9.25E10                   -10.182886695504752
9.26E10                   -10.657225966032529
9.27E10                   -11.120928104250023
9.28E10                   -11.588289668608978
9.29E10                   -12.073703020693639
9.3E10                    -12.590952587861102
9.31E10                   -13.152980194284694
9.32E10                   -13.772016366365907
9.33E10                   -14.459974889492134
9.34E10                   -15.229045088011421
9.35E10                   -16.092462706060026
9.36E10                   -17.06547931709668
9.37E10                   -18.166562953873985
9.38E10                   -19.418789955318353
9.39E10                   -20.851007259479477
9.4E10                    -22.496808938297196
9.41E10                   -24.383432635489477
9.42E10                   -26.480790553579237
9.43E10                   -28.52249961463454
9.44E10                   -29.69338572826103
9.45E10                   -29.179473488021994
9.46E10                   -27.53147125613711
9.47E10                   -25.67964403815258
9.48E10                   -23.99314843253847
9.49E10                   -22.53079163752702
9.5E10                    -21.268180613543777
9.51E10                   -20.168727152371332
9.52E10                   -19.20026101188926
9.53E10                   -18.337440020998987
9.54E10                   -17.560919156018418
9.55E10                   -16.85604480492717
9.56E10                   -16.211708798161723
9.57E10                   -15.619454800335514
9.58E10                   -15.072804532423936
9.59E10                   -14.566753820923156
9.6E10                    -14.097395761032935
9.61E10                   -13.66163864044768
9.62E10                   -13.256994798156953
9.63E10                   -12.881422824068077
9.64E10                   -12.533209942265389
9.65E10                   -12.210884612488655
9.66E10                   -11.913151735900575
9.67E10                   -11.638844627689966
9.68E10                   -11.386889287723129
9.69E10                   -11.156277567516941
9.7E10                    -10.946046668108673

9.2E10                    -8.584919939127279
9.21E10                   -8.784919939127279
9.22E10                   -8.984919939127279
9.23E10                   -9.174323254235933
9.24E10                   -9.401412010688366
9.25E10                   -9.664500984504595
9.26E10                   -9.962606211301882
9.27E10                   -10.29549892132323
9.28E10                   -10.663720269486845
9.29E10                   -11.068568216457278
9.3E10                    -11.512065464920042
9.31E10                   -11.996913611198114
9.32E10                   -12.526433552328609
9.33E10                   -13.104484610332726
9.34E10                   -13.735342240944297
9.35E10                   -14.423491544678075
9.36E10                   -15.17325162554711
9.37E10                   -15.98806697808826
9.38E10                   -16.869157890614346
9.39E10                   -17.812975439627657
9.4E10                    -18.806557306770365
9.41E10                   -19.819666789346524
9.42E10                   -20.793616950297285
9.43E10                   -21.631803975715535
9.44E10                   -22.208305107651878
9.45E10                   -22.41462836549109
9.46E10                   -22.2264046978639
9.47E10                   -21.720935068630606
9.48E10                   -21.023355391449723
9.49E10                   -20.24495753821118
9.5E10                    -19.459401990934623
9.51E10                   -18.707060702940897
9.52E10                   -18.00662653627984
9.53E10                   -17.364582219620413
9.54E10                   -16.781115916996193
9.55E10                   -16.253427557299595
9.56E10                   -15.777474657047641
9.57E10                   -15.348858169217879
9.58E10                   -14.963251810982872
9.59E10                   -14.616594154292912
9.6E10                    -14.305159884260185
9.61E10                   -14.025571394243698
9.62E10                   -13.774782628258253
9.63E10                   -13.550051621066043
9.64E10                   -13.348910008326005
9.65E10                   -13.169133454880031
9.66E10                   -13.008714677180702
9.67E10                   -12.865839563867693
9.68E10                   -12.738866318610063
9.69E10                   -12.62630728762564
9.7E10                    -12.526813041658043

9.2E10                    -3.2687483806400035
9.21E10                   -3.0927991664464436
9.22E10                   -2.9414469955212734
9.23E10                   -2.810300156126369
9.24E10                   -2.695578323548572
9.25E10                   -2.5941620918515893
9.26E10                   -2.5035838243241466
9.27E10                   -2.4219772134660116
9.28E10                   -2.348001161947437
9.29E10                   -2.280750569301567
9.3E10                    -2.219663480230292
9.31E10                   -2.1644313624861944
9.32E10                   -2.114917170770123
9.33E10                   -2.0710842410577697
9.34E10                   -2.0329378011436696
9.35E10                   -2.00047984722769
9.36E10                   -1.9736772446572128
9.37E10                   -1.9524421414223418
9.38E10                   -1.9366231544410435
9.39E10                   -1.9260053367320664
9.4E10                    -1.9203166879365574
9.41E10                   -1.919238939275595
9.42E10                   -1.9224205074863137
9.43E10                   -1.929489827332038
9.44E10                   -1.940067681589932
9.45E10                   -1.9537775911283433
9.46E10                   -1.9702537533854672
9.47E10                   -1.9891463865937264
9.48E10                   -2.0101246266925865
9.49E10                   -2.0328773260190593
9.5E10                    -2.0571122210773445
9.51E10                   -2.082553982132764
9.52E10                   -2.1089416452067216
9.53E10                   -2.1360258735026063
9.54E10                   -2.1635664157337824
9.55E10                   -2.1913300365288584
9.56E10                   -2.219089099781136
9.57E10                   -2.24662089746267
9.58E10                   -2.2737077394950393
9.59E10                   -2.300137757913662
9.6E10                    -2.3257063320471407
9.61E10                   -2.350218010498232
9.62E10                   -2.373488788988587
9.63E10                   -2.395348598507993
9.64E10                   -2.415643863195723
9.65E10                   -2.4342399993921022
9.66E10                   -2.451023743893736
9.67E10                   -2.4659052185033583
9.68E10                   -2.4788196577572745
9.69E10                   -2.4897287459921134
9.7E10                    -2.4986215278323884
