% Model:              dipolo.mph
% Version:            COMSOL 5.5.0.292
% Date:               May 14 2020, 14:13
% Dimension:          1
% Nodes:              153
% Expressions:        1
% Description:        Global
% x                       Height
9.2E10                    -8.584919939127279
9.21E10                   -8.784919939127279
9.22E10                   -8.984919939127279
9.23E10                   -9.174323254235933
9.24E10                   -9.401412010688366
9.25E10                   -9.664500984504595
9.26E10                   -9.962606211301882
9.27E10                   -10.29549892132323
9.28E10                   -10.663720269486845
9.29E10                   -11.068568216457278
9.3E10                    -11.512065464920042
9.31E10                   -11.996913611198114
9.32E10                   -12.526433552328609
9.33E10                   -13.104484610332726
9.34E10                   -13.735342240944297
9.35E10                   -14.423491544678075
9.36E10                   -15.17325162554711
9.37E10                   -15.98806697808826
9.38E10                   -16.869157890614346
9.39E10                   -17.812975439627657
9.4E10                    -18.806557306770365
9.41E10                   -19.819666789346524
9.42E10                   -20.793616950297285
9.43E10                   -21.631803975715535
9.44E10                   -22.208305107651878
9.45E10                   -22.41462836549109
9.46E10                   -22.2264046978639
9.47E10                   -21.720935068630606
9.48E10                   -21.023355391449723
9.49E10                   -20.24495753821118
9.5E10                    -19.459401990934623
9.51E10                   -18.707060702940897
9.52E10                   -18.00662653627984
9.53E10                   -17.364582219620413
9.54E10                   -16.781115916996193
9.55E10                   -16.253427557299595
9.56E10                   -15.777474657047641
9.57E10                   -15.348858169217879
9.58E10                   -14.963251810982872
9.59E10                   -14.616594154292912
9.6E10                    -14.305159884260185
9.61E10                   -14.025571394243698
9.62E10                   -13.774782628258253
9.63E10                   -13.550051621066043
9.64E10                   -13.348910008326005
9.65E10                   -13.169133454880031
9.66E10                   -13.008714677180702
9.67E10                   -12.865839563867693
9.68E10                   -12.738866318610063
9.69E10                   -12.62630728762564
9.7E10                    -12.526813041658043

9.2E10                    -3.4226571059957838
9.21E10                   -3.263351414460644
9.22E10                   -3.122603567634275
9.23E10                   -2.996863939903502
9.24E10                   -2.8831280607245056
9.25E10                   -2.7789922795818587
9.26E10                   -2.6826488879081345
9.27E10                   -2.5928385663863276
9.28E10                   -2.5087761742174335
9.29E10                   -2.4300628073208443
9.3E10                    -2.356593866435171
9.31E10                   -2.2884701347592933
9.32E10                   -2.2259167026954905
9.33E10                   -2.1692129175112376
9.34E10                   -2.1186352327948548
9.35E10                   -2.074413756519193
9.36E10                   -2.036702369808116
9.37E10                   -2.0055614897995966
9.38E10                   -1.9809518985258894
9.39E10                   -1.9627375912823475
9.4E10                    -1.95069534198433
9.41E10                   -1.9445286469567358
9.42E10                   -1.943883872236958
9.43E10                   -1.9483667486519711
9.44E10                   -1.9575577752995998
9.45E10                   -1.971025544780002
9.46E10                   -1.9883374392763447
9.47E10                   -2.0090675259218655
9.48E10                   -2.0328017794346103
9.49E10                   -2.0591409712596827
9.5E10                    -2.0877016906449923
9.51E10                   -2.1181160151955654
9.52E10                   -2.150030341593962
9.53E10                   -2.183103837630206
9.54E10                   -2.217006899900598
9.55E10                   -2.251419910950733
9.56E10                   -2.286032496115709
9.57E10                   -2.320543392018131
9.58E10                   -2.3546609612131983
9.59E10                   -2.3881043241458304
9.6E10                    -2.420605031781586
9.61E10                   -2.4519091698605475
9.62E10                   -2.48177976739829
9.63E10                   -2.5099993758038197
9.64E10                   -2.5363726883350983
9.65E10                   -2.5607290800437097
9.66E10                   -2.5829249634364615
9.67E10                   -2.6028458727095733
9.68E10                   -2.6204082078658764
9.69E10                   -2.6355605880580963
9.7E10                    -2.6482847802724585

9.2E10                    -6.628030144180467
9.21E10                   -7.071448373733059
9.22E10                   -7.482612234816636
9.23E10                   -7.8651247795378465
9.24E10                   -8.226431487729668
9.25E10                   -8.57654412534348
9.26E10                   -8.926741592571204
9.27E10                   -9.288532920926528
9.28E10                   -9.673001724522354
9.29E10                   -10.090519010388196
9.3E10                    -10.550746596930797
9.31E10                   -11.062845712741824
9.32E10                   -11.635828901366743
9.33E10                   -12.279027476270416
9.34E10                   -13.002681318631154
9.35E10                   -13.818690698706522
9.36E10                   -14.741602035102748
9.37E10                   -15.789927270520831
9.38E10                   -16.98788847914225
9.39E10                   -18.367489028555823
9.4E10                    -19.969811712070605
9.41E10                   -21.839909594916378
9.42E10                   -23.989850277161374
9.43E10                   -26.230618582511582
9.44E10                   -27.72184234195308
9.45E10                   -27.27185601188267
9.46E10                   -25.38837536668648
9.47E10                   -23.28135750976901
9.48E10                   -21.398395414656104
9.49E10                   -19.788948395651175
9.5E10                    -18.41337470551005
9.51E10                   -17.225138522805178
9.52E10                   -16.186157548613338
9.53E10                   -15.267462931290293
9.54E10                   -14.44730297125395
9.55E10                   -13.709262155985261
9.56E10                   -13.040815675857615
9.57E10                   -12.432285046212892
9.58E10                   -11.876093130960681
9.59E10                   -11.366230813784137
9.6E10                    -10.89787167633066
9.61E10                   -10.467090690576036
9.62E10                   -10.070656785951966
9.63E10                   -9.705878509914296
9.64E10                   -9.370488270623097
9.65E10                   -9.062554879830765
9.66E10                   -8.780417006880217
9.67E10                   -8.522632166874041
9.68E10                   -8.287937290546587
9.69E10                   -8.075217948781784
9.7E10                    -7.883484054164615
