% Model:              dipolo.mph
% Version:            COMSOL 5.5.0.292
% Date:               May 16 2020, 01:59
% Dimension:          1
% Nodes:              153
% Expressions:        1
% Description:        Global
% x                       Height
9.2E10                    -6.428629966173026
9.21E10                   -7.1520236993954525
9.22E10                   -7.847210782265424
9.23E10                   -8.498874722223084
9.24E10                   -9.09826015322325
9.25E10                   -9.644494750109429
9.26E10                   -10.1442988621538
9.27E10                   -10.610283980693263
9.28E10                   -11.058563213396068
9.29E10                   -11.506482926703681
9.3E10                    -11.970994246912625
9.31E10                   -12.467800166053793
9.32E10                   -13.011158012302776
9.33E10                   -13.614133334107795
9.34E10                   -14.28912965015712
9.35E10                   -15.048586592315216
9.36E10                   -15.905801253683913
9.37E10                   -16.875859411335963
9.38E10                   -17.976631444129456
9.39E10                   -19.22958680381964
9.4E10                    -20.659447700290166
9.41E10                   -22.28919473955596
9.42E10                   -24.11858970296639
9.43E10                   -26.050412564331968
9.44E10                   -27.705213661842656
9.45E10                   -28.325150109486685
9.46E10                   -27.549923074907102
9.47E10                   -26.00463495735808
9.48E10                   -24.345145316214936
9.49E10                   -22.825366590112544
9.5E10                    -21.492160218600308
9.51E10                   -20.330264301738346
9.52E10                   -19.312363023061927
9.53E10                   -18.412850744497693
9.54E10                   -17.610693887938623
9.55E10                   -16.889321394977227
9.56E10                   -16.23585235207712
9.57E10                   -15.640300931983562
9.58E10                   -15.094910018903509
9.59E10                   -14.593626309348162
9.6E10                    -14.131695514670199
9.61E10                   -13.705352317045175
9.62E10                   -13.311583382056632
9.63E10                   -12.94794638109373
9.64E10                   -12.612431938110792
9.65E10                   -12.303358468115091
9.66E10                   -12.019292171331891
9.67E10                   -11.75898618240775
9.68E10                   -11.52133420432327
9.69E10                   -11.305334991666703
9.7E10                    -11.11006486166749

9.2E10                    -9.012822773558717
9.21E10                   -9.138145010491984
9.22E10                   -9.31068216316548
9.23E10                   -9.527011647896954
9.24E10                   -9.784234770045156
9.25E10                   -10.080110519371466
9.26E10                   -10.413112150155104
9.27E10                   -10.782420445774735
9.28E10                   -11.187867724359828
9.29E10                   -11.629843086736527
9.3E10                    -12.109163530500506
9.31E10                   -12.626907881699442
9.32E10                   -13.184200637546933
9.33E10                   -13.781919565284879
9.34E10                   -14.420282511706242
9.35E10                   -15.09824384368591
9.36E10                   -15.812600450061687
9.37E10                   -16.556681818289558
9.38E10                   -17.31851376910906
9.39E10                   -18.078489566186825
9.4E10                    -18.807021717842353
9.41E10                   -19.463552317563632
9.42E10                   -19.999435052239033
9.43E10                   -20.367156208775278
9.44E10                   -20.53483661120822
9.45E10                   -20.498696490533767
9.46E10                   -20.28444310940231
9.47E10                   -19.93647103690265
9.48E10                   -19.503027785617977
9.49E10                   -19.025677225491183
9.5E10                    -18.53530636713121
9.51E10                   -18.052578384666937
9.52E10                   -17.590157968302726
9.53E10                   -17.15509552232822
9.54E10                   -16.75075307633008
9.55E10                   -16.378179051036298
9.56E10                   -16.037027547901705
9.57E10                   -15.726150159835342
9.58E10                   -15.443967714650988
9.59E10                   -15.188699378294137
9.6E10                    -14.958501164496765
9.61E10                   -14.751547600171754
9.62E10                   -14.566078007802702
9.63E10                   -14.400420900016632
9.64E10                   -14.253004910251537
9.65E10                   -14.122361485269774
9.66E10                   -14.007122558882852
9.67E10                   -13.906015172453207
9.68E10                   -13.817854228237493
9.69E10                   -13.741534081285888
9.7E10                    -13.676019384725302

9.2E10                    -3.4248368900757713
9.21E10                   -3.2389317199753824
9.22E10                   -3.0804606228406706
9.23E10                   -2.9440828741946623
9.24E10                   -2.8251581212463384
9.25E10                   -2.719837864419334
9.26E10                   -2.6250756727453513
9.27E10                   -2.5385797816121185
9.28E10                   -2.4587294055990667
9.29E10                   -2.3844716505257457
9.3E10                    -2.3152112910727176
9.31E10                   -2.25070184170928
9.32E10                   -2.1909435341974954
9.33E10                   -2.136091891367368
9.34E10                   -2.0863792803046155
9.35E10                   -2.042050866709172
9.36E10                   -2.0033155765087347
9.37E10                   -1.9703118962972588
9.38E10                   -1.9430875933726153
9.39E10                   -1.9215917526914539
9.4E10                    -1.9056769826343616
9.41E10                   -1.8951092992203502
9.42E10                   -1.889583095239111
9.43E10                   -1.8887387330555574
9.44E10                   -1.8921806272481052
9.45E10                   -1.8994941409619626
9.46E10                   -1.9102601346594297
9.47E10                   -1.924066510738526
9.48E10                   -1.9405165411397678
9.49E10                   -1.9592341164631395
9.5E10                    -1.9798663023450123
9.51E10                   -2.002083735235614
9.52E10                   -2.025579448739345
9.53E10                   -2.0500667119984297
9.54E10                   -2.0752764031944744
9.55E10                   -2.1009543527526615
9.56E10                   -2.126858988078033
9.57E10                   -2.1527595070375645
9.58E10                   -2.178434709880497
9.59E10                   -2.203672534706334
9.6E10                    -2.228270273128955
9.61E10                   -2.252035391516698
9.62E10                   -2.274786848581466
9.63E10                   -2.296356780493716
9.64E10                   -2.3165924177829162
9.65E10                   -2.335358101387194
9.66E10                   -2.352537275647479
9.67E10                   -2.368034351324736
9.68E10                   -2.3817763496773705
9.69E10                   -2.393714257560758
9.7E10                    -2.403824042098823
