% Model:              dipolo.mph
% Version:            COMSOL 5.5.0.292
% Date:               May 16 2020, 02:05
% Dimension:          1
% Nodes:              153
% Expressions:        1
% Description:        Global
% x                       Height
9.2E10                    -3.4257187162220246
9.21E10                   -3.2398410013471404
9.22E10                   -3.0814043880366566
9.23E10                   -2.945067692338185
9.24E10                   -2.8261900302378034
9.25E10                   -2.7209223020006097
9.26E10                   -2.6262174126451834
9.27E10                   -2.5397828770018394
9.28E10                   -2.4599971419518782
9.29E10                   -2.385806509716307
9.3E10                    -2.3166149282074606
9.31E10                   -2.2521750757352117
9.32E10                   -2.1924863528389396
9.33E10                   -2.1377034704010316
9.34E10                   -2.088058016648052
9.35E10                   -2.0437944242929014
9.36E10                   -2.0051209434610446
9.37E10                   -1.9721754516161327
9.38E10                   -1.945005181013881
9.39E10                   -1.9235587608628413
9.4E10                    -1.907688426066418
9.41E10                   -1.8971599022632377
9.42E10                   -1.8916673738041803
9.43E10                   -1.8908510736578397
9.44E10                   -1.8943153616896888
9.45E10                   -1.9016456155046537
9.46E10                   -1.912422772849588
9.47E10                   -1.9262348693479083
9.48E10                   -1.9426853589632365
9.49E10                   -1.9613983559557069
9.5E10                    -1.982021184282968
9.51E10                   -2.004224766746417
9.52E10                   -2.0277024451652297
9.53E10                   -2.0521678131383054
9.54E10                   -2.077352084517327
9.55E10                   -2.1030014321930937
9.56E10                   -2.12887462901986
9.57E10                   -2.154741218067598
9.58E10                   -2.180380341858016
9.59E10                   -2.205580275646851
9.6E10                    -2.2301386413493947
9.61E10                   -2.253863227434535
9.62E10                   -2.2765733055048134
9.63E10                   -2.2981013146863702
9.64E10                   -2.3182947780368184
9.65E10                   -2.337018318287715
9.66E10                   -2.3541556506731305
9.67E10                   -2.369611445883072
9.68E10                   -2.3833129741451105
9.69E10                   -2.39521146036316
9.7E10                    -2.405283098839087

9.2E10                    -6.908878099810803
9.21E10                   -7.2643188342530465
9.22E10                   -7.563145044884334
9.23E10                   -7.81800096253027
9.24E10                   -8.045168471206042
9.25E10                   -8.261743985421377
9.26E10                   -8.483722401892697
9.27E10                   -8.725076604281432
9.28E10                   -8.997586280607818
9.29E10                   -9.31109988300731
9.3E10                    -9.673984464954325
9.31E10                   -10.093619862346513
9.32E10                   -10.576874687439336
9.33E10                   -11.130551513141603
9.34E10                   -11.761813193431133
9.35E10                   -12.478608248573728
9.36E10                   -13.29010081028339
9.37E10                   -14.207065536780267
9.38E10                   -15.242082098153066
9.39E10                   -16.409019278305557
9.4E10                    -17.72034951990087
9.41E10                   -19.178252462809294
9.42E10                   -20.749070826003084
9.43E10                   -22.30064887560509
9.44E10                   -23.50404989048009
9.45E10                   -23.88290467478336
9.46E10                   -23.271309319166264
9.47E10                   -22.039327513205734
9.48E10                   -20.626527760023837
9.49E10                   -19.26082142033019
9.5E10                    -18.01680072034141
9.51E10                   -16.904636678675928
9.52E10                   -15.913444465614981
9.53E10                   -15.027570832270602
9.54E10                   -14.231994748485485
9.55E10                   -13.513804646041603
9.56E10                   -12.862341778739308
9.57E10                   -12.26893650837698
9.58E10                   -11.726561348938041
9.59E10                   -11.229507141173798
9.6E10                    -10.773110780404254
9.61E10                   -10.353535941470787
9.62E10                   -9.967599949870324
9.63E10                   -9.61263836984679
9.64E10                   -9.286399547699855
9.65E10                   -8.986962608768417
9.66E10                   -8.712673676893562
9.67E10                   -8.462096187058476
9.68E10                   -8.23397206417675
9.69E10                   -8.027191261635384
9.7E10                    -7.840767722252008

9.2E10                    -9.984605786480081
9.21E10                   -10.204681752871076
9.22E10                   -10.457811530931664
9.23E10                   -10.741271424617064
9.24E10                   -11.052984022685235
9.25E10                   -11.391549772245247
9.26E10                   -11.756220666149815
9.27E10                   -12.146830931896535
9.28E10                   -12.563695612397485
9.29E10                   -13.007482915902994
9.3E10                    -13.479060889831047
9.31E10                   -13.979313428212466
9.32E10                   -14.508914563965707
9.33E10                   -15.068043053588768
9.34E10                   -15.6560114329704
9.35E10                   -16.2707762422561
9.36E10                   -16.908293158503383
9.37E10                   -17.56169251395593
9.38E10                   -18.22029756638717
9.39E10                   -18.868622764455317
9.4E10                    -19.48570504847935
9.41E10                   -20.04541862659636
9.42E10                   -20.518622371703394
9.43E10                   -20.877674231126772
9.44E10                   -21.10263564596812
9.45E10                   -21.186806296417316
9.46E10                   -21.138667842538197
9.47E10                   -20.97907942602552
9.48E10                   -20.73539909260702
9.49E10                   -20.43551365829956
9.5E10                    -20.103825901665093
9.51E10                   -19.759561473681114
9.52E10                   -19.41673103398195
9.53E10                   -19.08491159901802
9.54E10                   -18.770256042336378
9.55E10                   -18.476428607895592
9.56E10                   -18.20535908865534
9.57E10                   -17.95780714371826
9.58E10                   -17.733766376874158
9.59E10                   -17.532745834340908
9.6E10                    -17.35396257709551
9.61E10                   -17.1964716908311
9.62E10                   -17.05925306493876
9.63E10                   -16.941268598622
9.64E10                   -16.84149927092118
9.65E10                   -16.758968503712207
9.66E10                   -16.692756155902654
9.67E10                   -16.642006054810828
9.68E10                   -16.6059289978166
9.69E10                   -16.583802499816652
9.7E10                    -16.574968118510863
