% Model:              quadripolo.mph
% Version:            COMSOL 5.5.0.292
% Date:               May 1 2020, 09:26
% Dimension:          1
% Nodes:              153
% Expressions:        1
% Description:        Global
% x                       Height
9.2E10                    -5.881548755125118
9.21E10                   -5.1770763716598065
9.22E10                   -4.664731918038351
9.23E10                   -4.2721735925100095
9.24E10                   -3.9572614263262436
9.25E10                   -3.6944606472594095
9.26E10                   -3.4678461792581388
9.27E10                   -3.2673045092253727
9.28E10                   -3.086371685071782
9.29E10                   -2.920947889013891
9.3E10                    -2.768500594374497
9.31E10                   -2.6275497832457404
9.32E10                   -2.4973214871839606
9.33E10                   -2.377505349326015
9.34E10                   -2.2680792236605174
9.35E10                   -2.1691793664855337
9.36E10                   -2.0810037539933846
9.37E10                   -2.003741209363964
9.38E10                   -1.9375218430481036
9.39E10                   -1.8823856869986157
9.4E10                    -1.8382669119800974
9.41E10                   -1.8049910619463678
9.42E10                   -1.7822826152696494
9.43E10                   -1.7697800922033489
9.44E10                   -1.7670559889729922
9.45E10                   -1.7736390721242026
9.46E10                   -1.789036992227662
9.47E10                   -1.812757715190495
9.48E10                   -1.8443288487292029
9.49E10                   -1.8833144923750353
9.5E10                    -1.9293297107853415
9.51E10                   -1.9820530941188794
9.52E10                   -2.041238119667963
9.53E10                   -2.1067241766471687
9.54E10                   -2.178448182368069
9.55E10                   -2.2564577286940426
9.56E10                   -2.34092667776693
9.57E10                   -2.4321740965207397
9.58E10                   -2.5306873950812507
9.59E10                   -2.6371505218190574
9.6E10                    -2.7524780660841737
9.61E10                   -2.8778561179030904
9.62E10                   -3.014790711911507
9.63E10                   -3.1651646106885107
9.64E10                   -3.3313030226952076
9.65E10                   -3.5160485624337174
9.66E10                   -3.722845317165975
9.67E10                   -3.955831298033102
9.68E10                   -4.219937928019411
9.69E10                   -4.52099483591491
9.7E10                    -4.865838665143791
9.2E10                    -5.95812693821365
9.21E10                   -7.09233798927505
9.22E10                   -8.16355693105233
9.23E10                   -9.16599703659154
9.24E10                   -10.1009099813978
9.25E10                   -10.9734273970762
9.26E10                   -11.7908719130914
9.27E10                   -12.5618054843480
9.28E10                   -13.2954402433379
9.29E10                   -14.0012331581971
9.3E10                    -14.6885824637769
9.31E10                   -15.3665860494755
9.32E10                   -16.0438361659403
9.33E10                   -16.7282250622272
9.34E10                   -17.4267289279661
9.35E10                   -18.1451245345775
9.36E10                   -18.8875734104621
9.37E10                   -19.6559811156530
9.38E10                   -20.4490070649211
9.39E10                   -21.2605803686911
9.4E10                    -22.0778225752369
9.41E10                   -22.8785145849398
9.42E10                   -23.6288832567622
9.43E10                   -24.2836471918629
9.44E10                   -24.7913389229866
9.45E10                   -25.1067649900223
9.46E10                   -24.8069703743665
9.47E10                   -24.3008319633712
9.48E10                   -23.6247145445438
9.49E10                   -22.8277909746267
9.5E10                    -21.9574183579390
9.51E10                   -21.0510857796707
9.52E10                   -20.1347383824947
9.53E10                   -19.2244861574161
9.54E10                   -18.3292368684115
9.55E10                   -17.4530704083256
9.56E10                   -16.5970237188544
9.57E10                   -15.7603228746106
9.58E10                   -14.9411990542288
9.59E10                   -14.1374204129208
9.6E10                    -13.3466396816539
9.61E10                   -12.5666257066086
9.62E10                   -11.7954231416720
9.63E10                   -11.0314679648322
9.64E10                   -10.2736755127175
9.65E10                   -9.52151044979008
9.66E10                   -8.77504308104011
9.67E10                   -8.03499268526625
9.68E10                   -7.30275545391140
9.69E10                   -6.58041184623047
9.7E10                    -5.87070571859893
9.2E10                    -5.337028268389485
9.21E10                   -5.046591464340087
9.22E10                   -4.902268236137857
9.23E10                   -4.861254356477804
9.24E10                   -4.899140696201084
9.25E10                   -5.001972070231492
9.26E10                   -5.162015848307952
9.27E10                   -5.375435086156348
9.28E10                   -5.640974781988588
9.29E10                   -5.959208812779857
9.3E10                    -6.332112382854489
9.31E10                   -6.762836177500962
9.32E10                   -7.2556178717101085
9.33E10                   -7.815799828468189
9.34E10                   -8.449940720553235
9.35E10                   -9.166017836734687
9.36E10                   -9.97371383069899
9.37E10                   -10.88475334261023
9.38E10                   -11.91316024443564
9.39E10                   -13.075026434082273
9.4E10                    -14.386574304676083
9.41E10                   -15.856981537353814
9.42E10                   -17.46620447910772
9.43E10                   -19.10548245389912
9.44E10                   -20.464805007181823
9.45E10                   -21.022679898862478
9.46E10                   -20.50965591855148
9.47E10                   -19.284644114555878
9.48E10                   -17.84745063881312
9.49E10                   -16.462512764950677
9.5E10                    -15.214276205749647
9.51E10                   -14.113089671706183
9.52E10                   -13.146120609351842
9.53E10                   -12.295777834474094
9.54E10                   -11.54554727057369
9.55E10                   -10.881479672998156
9.56E10                   -10.292270998105026
9.57E10                   -9.768945403073495
9.58E10                   -9.304477831104172
9.59E10                   -8.893459822713659
9.6E10                    -8.531832269694258
9.61E10                   -8.216682853900362
9.62E10                   -7.946098788799486
9.63E10                   -7.719064594970875
9.64E10                   -7.5353954061333415
9.65E10                   -7.395697036795027
9.66E10                   -7.301344102002282
9.67E10                   -7.254466569547452
9.68E10                   -7.2579330501290515
9.69E10                   -7.3153157058539815
9.7E10                    -7.430816667302343
