% Model:              quadripolo.mph
% Version:            COMSOL 5.5.0.292
% Date:               May 1 2020, 09:13
% Dimension:          1
% Nodes:              153
% Expressions:        1
% Description:        Global
% x                       Height
9.2E10                    -6.260598235614446
9.21E10                   -6.692396385082497
9.22E10                   -7.172345968169589
9.23E10                   -7.700289041265486
9.24E10                   -8.275230163042444
9.25E10                   -8.895384347314722
9.26E10                   -9.558286279783152
9.27E10                   -10.26094902666783
9.28E10                   -11.000052939344549
9.29E10                   -11.772139439415751
9.3E10                    -12.57377934674301
9.31E10                   -13.40168047409901
9.32E10                   -14.252693532980913
9.33E10                   -15.123668648347692
9.34E10                   -16.011107612770424
9.35E10                   -16.910552320699807
9.36E10                   -17.815656131987813
9.37E10                   -18.716923156092735
9.38E10                   -19.600212984679207
9.39E10                   -20.44535844713124
9.4E10                    -21.225667836098452
9.41E10                   -21.909534744042432
9.42E10                   -22.46530533619598
9.43E10                   -22.869138891218526
9.44E10                   -23.112946236421575
9.45E10                   -23.207912186734312
9.46E10                   -23.112946236421575
9.47E10                   -22.869138891218526
9.48E10                   -22.46530533619598
9.49E10                   -21.909534744042432
9.5E10                    -21.225667836098452
9.51E10                   -20.44535844713124
9.52E10                   -19.600212984679207
9.53E10                   -18.716923156092735
9.54E10                   -17.815656131987813
9.55E10                   -16.910552320699807
9.56E10                   -16.011107612770424
9.57E10                   -15.123668648347692
9.58E10                   -14.252693532980913
9.59E10                   -13.40168047409901
9.6E10                    -12.57377934674301
9.61E10                   -11.772139439415751
9.62E10                   -11.000052939344549
9.63E10                   -10.26094902666783
9.64E10                   -9.558286279783152
9.65E10                   -8.895384347314722
9.66E10                   -8.275230163042444
9.67E10                   -7.700289041265486
9.68E10                   -7.172345968169589
9.69E10                   -6.692396385082497
9.7E10                    -6.260598235614446

9.2E10                    -6.260598235614446
9.21E10                   -6.692396385082497
9.22E10                   -7.172345968169589
9.23E10                   -7.700289041265486
9.24E10                   -8.275230163042444
9.25E10                   -8.895384347314722
9.26E10                   -9.558286279783152
9.27E10                   -10.26094902666783
9.28E10                   -11.000052939344549
9.29E10                   -11.772139439415751
9.3E10                    -12.57377934674301
9.31E10                   -13.40168047409901
9.32E10                   -14.252693532980913
9.33E10                   -15.123668648347692
9.34E10                   -16.011107612770424
9.35E10                   -16.910552320699807
9.36E10                   -17.815656131987813
9.37E10                   -18.716923156092735
9.38E10                   -19.600212984679207
9.39E10                   -20.44535844713124
9.4E10                    -21.225667836098452
9.41E10                   -21.909534744042432
9.42E10                   -22.46530533619598
9.43E10                   -22.869138891218526
9.44E10                   -23.112946236421575
9.45E10                   -23.207912186734312
9.46E10                   -23.112946236421575
9.47E10                   -22.869138891218526
9.48E10                   -22.46530533619598
9.49E10                   -21.909534744042432
9.5E10                    -21.225667836098452
9.51E10                   -20.44535844713124
9.52E10                   -19.600212984679207
9.53E10                   -18.716923156092735
9.54E10                   -17.815656131987813
9.55E10                   -16.910552320699807
9.56E10                   -16.011107612770424
9.57E10                   -15.123668648347692
9.58E10                   -14.252693532980913
9.59E10                   -13.40168047409901
9.6E10                    -12.57377934674301
9.61E10                   -11.772139439415751
9.62E10                   -11.000052939344549
9.63E10                   -10.26094902666783
9.64E10                   -9.558286279783152
9.65E10                   -8.895384347314722
9.66E10                   -8.275230163042444
9.67E10                   -7.700289041265486
9.68E10                   -7.172345968169589
9.69E10                   -6.692396385082497
9.7E10                    -6.260598235614446

9.2E10                    -4.865838665143791
9.21E10                   -4.52099483591491
9.22E10                   -4.219937928019411
9.23E10                   -3.955831298033102
9.24E10                   -3.722845317165975
9.25E10                   -3.5160485624337174
9.26E10                   -3.3313030226952076
9.27E10                   -3.1651646106885107
9.28E10                   -3.014790711911507
9.29E10                   -2.8778561179030904
9.3E10                    -2.7524780660841737
9.31E10                   -2.6371505218190574
9.32E10                   -2.5306873950812507
9.33E10                   -2.4321740965207397
9.34E10                   -2.34092667776693
9.35E10                   -2.2564577286940426
9.36E10                   -2.178448182368069
9.37E10                   -2.1067241766471687
9.38E10                   -2.041238119667963
9.39E10                   -1.9820530941188794
9.4E10                    -1.9293297107853415
9.41E10                   -1.8833144923750353
9.42E10                   -1.8443288487292029
9.43E10                   -1.812757715190495
9.44E10                   -1.789036992227662
9.45E10                   -1.7736390721242026
9.46E10                   -1.789036992227662
9.47E10                   -1.812757715190495
9.48E10                   -1.8443288487292029
9.49E10                   -1.8833144923750353
9.5E10                    -1.9293297107853415
9.51E10                   -1.9820530941188794
9.52E10                   -2.041238119667963
9.53E10                   -2.1067241766471687
9.54E10                   -2.178448182368069
9.55E10                   -2.2564577286940426
9.56E10                   -2.34092667776693
9.57E10                   -2.4321740965207397
9.58E10                   -2.5306873950812507
9.59E10                   -2.6371505218190574
9.6E10                    -2.7524780660841737
9.61E10                   -2.8778561179030904
9.62E10                   -3.014790711911507
9.63E10                   -3.1651646106885107
9.64E10                   -3.3313030226952076
9.65E10                   -3.5160485624337174
9.66E10                   -3.722845317165975
9.67E10                   -3.955831298033102
9.68E10                   -4.219937928019411
9.69E10                   -4.52099483591491
9.7E10                    -4.865838665143791
