% Model:              quadripolo.mph
% Version:            COMSOL 5.5.0.292
% Date:               Mar 2 2020, 16:01
% Dimension:          1
% Nodes:              153
% Expressions:        1
% Description:        Global
% x                       Height
9.2E10                    -6.331433365553122
9.21E10                   -6.794586139155525
9.22E10                   -7.1894961335919785
9.23E10                   -7.530915037229803
9.24E10                   -7.837417645046418
9.25E10                   -8.12735811662039
9.26E10                   -8.417028559838753
9.27E10                   -8.720189924282751
9.28E10                   -9.048291653821147
9.29E10                   -9.410956073122819
9.3E10                    -9.816514722738475
9.31E10                   -10.272515472363724
9.32E10                   -10.786189656209013
9.33E10                   -11.364902946641294
9.34E10                   -12.016630704180349
9.35E10                   -12.75050873805097
9.36E10                   -13.577517840618412
9.37E10                   -14.511360925977122
9.38E10                   -15.569560477297113
9.39E10                   -16.555555555555555
9.4E10                    -17.685035569567886
9.41E10                   -19.187747157790447
9.42E10                   -20.952441183685615
9.43E10                   -22.896672388544566
9.44E10                   -24.76326528906351
9.45E10                   -25.7906467180685
9.46E10                   -24.76326528906351
9.47E10                   -22.896672388544566
9.48E10                   -20.952441183685615
9.49E10                   -19.187747157790447
9.5E10                    -17.635035569567886
9.51E10                   -16.269498955170683
9.52E10                   -15.0590725003591
9.53E10                   -13.976057023792638
9.54E10                   -12.998605000958733
9.55E10                   -12.109877867737001
9.56E10                   -11.296901459561068
9.57E10                   -10.549592128606417
9.58E10                   -9.860016906704486
9.59E10                   -9.221853765278112
9.6E10                    -8.630004610518917
9.61E10                   -8.080320600857798
9.62E10                   -7.569409219415876
9.63E10                   -7.094500962694299
9.64E10                   -6.653359882295668
9.65E10                   -6.244226815245416
9.66E10                   -5.865787362153524
9.67E10                   -5.5171588474944935
9.68E10                   -5.197891842872507
9.69E10                   -4.9079824782603625
9.7E10                    -4.64789176155634
9.2E10                    -5.093990318505501
9.21E10                   -4.518794944402137
9.22E10                   -4.085289134751394
9.23E10                   -3.7466404878905175
9.24E10                   -3.4727301156969634
9.25E10                   -3.243982531349327
9.26E10                   -3.0475835632132426
9.27E10                   -2.8751322227769007
9.28E10                   -2.721156467755643
9.29E10                   -2.5821540907963363
9.3E10                    -2.4559570313377272
9.31E10                   -2.3412983575398134
9.32E10                   -2.2375091960640456
9.33E10                   -2.144301626522099
9.34E10                   -2.0616108715640733
9.35E10                   -1.98948052947538
9.36E10                   -1.9279807487953673
9.37E10                   -1.8771527169398936
9.38E10                   -1.836974631330138
9.39E10                   -1.8073451221076764
9.4E10                    -1.7880803820229074
9.41E10                   -1.7789213704899005
9.42E10                   -1.779547613595927
9.43E10                   -1.789594432171817
9.44E10                   -1.8086709198426263
9.45E10                   -1.8363766232977417
9.46E10                   -1.8723155746259657
9.47E10                   -1.916107009518468
9.48E10                   -1.9673927065091255
9.49E10                   -2.025841355122912
9.5E10                    -2.091150684432163
9.51E10                   -2.1630482603880083
9.52E10                   -2.241291909481475
9.53E10                   -2.3256706769615083
9.54E10                   -2.416007113257735
9.55E10                   -2.512161535145708
9.56E10                   -2.6140387574782538
9.57E10                   -2.721597660280131
9.58E10                   -2.8348638613824386
9.59E10                   -2.9539457167281498
9.6E10                    -3.0790538730684673
9.61E10                   -3.2105246498569717
9.62E10                   -3.3488476232136883
9.63E10                   -3.4946979157604545
9.64E10                   -3.6489738493932595
9.65E10                   -3.812840777422144
9.66E10                   -3.9877820570367923
9.67E10                   -4.175658225726692
9.68E10                   -4.378775471940012
9.69E10                   -4.599964400381093
9.7E10                    -4.842669844371511
9.2E10                    -6.331433365553122
9.21E10                   -6.794586139155525
9.22E10                   -7.1894961335919785
9.23E10                   -7.530915037229803
9.24E10                   -7.837417645046418
9.25E10                   -8.12735811662039
9.26E10                   -8.417028559838753
9.27E10                   -8.720189924282751
9.28E10                   -9.048291653821147
9.29E10                   -9.410956073122819
9.3E10                    -9.816514722738475
9.31E10                   -10.272515472363724
9.32E10                   -10.786189656209013
9.33E10                   -11.364902946641294
9.34E10                   -12.016630704180349
9.35E10                   -12.75050873805097
9.36E10                   -13.577517840618412
9.37E10                   -14.511360925977122
9.38E10                   -15.569560477297113
9.39E10                   -16.555555555555555
9.4E10                    -17.685035569567886
9.41E10                   -19.187747157790447
9.42E10                   -20.952441183685615
9.43E10                   -22.896672388544566
9.44E10                   -24.76326528906351
9.45E10                   -25.7906467180685
9.46E10                   -24.76326528906351
9.47E10                   -22.896672388544566
9.48E10                   -20.952441183685615
9.49E10                   -19.187747157790447
9.5E10                    -17.635035569567886
9.51E10                   -16.269498955170683
9.52E10                   -15.0590725003591
9.53E10                   -13.976057023792638
9.54E10                   -12.998605000958733
9.55E10                   -12.109877867737001
9.56E10                   -11.296901459561068
9.57E10                   -10.549592128606417
9.58E10                   -9.860016906704486
9.59E10                   -9.221853765278112
9.6E10                    -8.630004610518917
9.61E10                   -8.080320600857798
9.62E10                   -7.569409219415876
9.63E10                   -7.094500962694299
9.64E10                   -6.653359882295668
9.65E10                   -6.244226815245416
9.66E10                   -5.865787362153524
9.67E10                   -5.5171588474944935
9.68E10                   -5.197891842872507
9.69E10                   -4.9079824782603625
9.7E10                    -4.64789176155634