% Model:              quadripolo.mph
% Version:            COMSOL 5.5.0.292
% Date:               Mar 2 2020, 16:01
% Dimension:          1
% Nodes:              153
% Expressions:        1
% Description:        Global
% x                       Height
9.2E10                    -5.093832224432938
9.21E10                   -4.518690487245948
9.22E10                   -4.085195439728583
9.23E10                   -3.7465270257918575
9.24E10                   -3.4725738507740758
9.25E10                   -3.2437653920577385
9.26E10                   -3.0472910508601063
9.27E10                   -2.8747526179412968
9.28E10                   -2.720680367723271
9.29E10                   -2.5815741366679563
9.3E10                    -2.455267745036718
9.31E10                   -2.3404960410725466
9.32E10                   -2.236591863157182
9.33E10                   -2.143268947224701
9.34E10                   -2.0604641169870344
9.35E10                   -1.9882225083055873
9.36E10                   -1.9266157304722111
9.37E10                   -1.875686338883593
9.38E10                   -1.8354137896017604
9.39E10                   -1.8056978464722306
9.4E10                    -1.7863556976230666
9.41E10                   -1.77712914923868
9.42E10                   -1.7776984189736764
9.43E10                   -1.7876993613873924
9.44E10                   -1.8067414473079377
9.45E10                   -1.834424449131957
9.46E10                   -1.870352481468909
9.47E10                   -1.914144730380122
9.48E10                   -1.965442805744463
9.49E10                   -2.0239151239634587
9.5E10                    -2.089259051866658
9.51E10                   -2.1612017196031204
9.52E10                   -2.2395004595674433
9.53E10                   -2.3239437791759725
9.54E10                   -2.4143536608271967
9.55E10                   -2.510589835358814
9.56E10                   -2.612556524686765
9.57E10                   -2.7202120183510505
9.58E10                   -2.8335813541262898
9.59E10                   -2.9527723248378734
9.6E10                    -3.0779950361266395
9.61E10                   -3.2095852919749857
9.62E10                   -3.3480321808250486
9.63E10                   -3.4940103659701727
9.64E10                   -3.6484177370201607
9.65E10                   -3.812419238396555
9.66E10                   -3.9874978350034356
9.67E10                   -4.1755136773714145
9.68E10                   -4.378772554411356
9.69E10                   -4.600104630725322
9.7E10                    -4.842954215335019
9.2E10                    -6.331433365553122
9.21E10                   -6.794586139155525
9.22E10                   -7.1894961335919785
9.23E10                   -7.530915037229803
9.24E10                   -7.837417645046418
9.25E10                   -8.12735811662039
9.26E10                   -8.417028559838753
9.27E10                   -8.720189924282751
9.28E10                   -9.048291653821147
9.29E10                   -9.410956073122819
9.3E10                    -9.816514722738475
9.31E10                   -10.272515472363724
9.32E10                   -10.786189656209013
9.33E10                   -11.364902946641294
9.34E10                   -12.016630704180349
9.35E10                   -12.75050873805097
9.36E10                   -13.577517840618412
9.37E10                   -14.511360925977122
9.38E10                   -15.569560477297113
9.39E10                   -16.555555555555555
9.4E10                    -17.685035569567886
9.41E10                   -19.187747157790447
9.42E10                   -20.952441183685615
9.43E10                   -22.896672388544566
9.44E10                   -24.76326528906351
9.45E10                   -25.7906467180685
9.46E10                   -24.76326528906351
9.47E10                   -22.896672388544566
9.48E10                   -20.952441183685615
9.49E10                   -19.187747157790447
9.5E10                    -17.635035569567886
9.51E10                   -16.269498955170683
9.52E10                   -15.0590725003591
9.53E10                   -13.976057023792638
9.54E10                   -12.998605000958733
9.55E10                   -12.109877867737001
9.56E10                   -11.296901459561068
9.57E10                   -10.549592128606417
9.58E10                   -9.860016906704486
9.59E10                   -9.221853765278112
9.6E10                    -8.630004610518917
9.61E10                   -8.080320600857798
9.62E10                   -7.569409219415876
9.63E10                   -7.094500962694299
9.64E10                   -6.653359882295668
9.65E10                   -6.244226815245416
9.66E10                   -5.865787362153524
9.67E10                   -5.5171588474944935
9.68E10                   -5.197891842872507
9.69E10                   -4.9079824782603625
9.7E10                    -4.64789176155634
9.2E10                    -6.331433365553122
9.21E10                   -6.794586139155525
9.22E10                   -7.1894961335919785
9.23E10                   -7.530915037229803
9.24E10                   -7.837417645046418
9.25E10                   -8.12735811662039
9.26E10                   -8.417028559838753
9.27E10                   -8.720189924282751
9.28E10                   -9.048291653821147
9.29E10                   -9.410956073122819
9.3E10                    -9.816514722738475
9.31E10                   -10.272515472363724
9.32E10                   -10.786189656209013
9.33E10                   -11.364902946641294
9.34E10                   -12.016630704180349
9.35E10                   -12.75050873805097
9.36E10                   -13.577517840618412
9.37E10                   -14.511360925977122
9.38E10                   -15.569560477297113
9.39E10                   -16.555555555555555
9.4E10                    -17.685035569567886
9.41E10                   -19.187747157790447
9.42E10                   -20.952441183685615
9.43E10                   -22.896672388544566
9.44E10                   -24.76326528906351
9.45E10                   -25.7906467180685
9.46E10                   -24.76326528906351
9.47E10                   -22.896672388544566
9.48E10                   -20.952441183685615
9.49E10                   -19.187747157790447
9.5E10                    -17.635035569567886
9.51E10                   -16.269498955170683
9.52E10                   -15.0590725003591
9.53E10                   -13.976057023792638
9.54E10                   -12.998605000958733
9.55E10                   -12.109877867737001
9.56E10                   -11.296901459561068
9.57E10                   -10.549592128606417
9.58E10                   -9.860016906704486
9.59E10                   -9.221853765278112
9.6E10                    -8.630004610518917
9.61E10                   -8.080320600857798
9.62E10                   -7.569409219415876
9.63E10                   -7.094500962694299
9.64E10                   -6.653359882295668
9.65E10                   -6.244226815245416
9.66E10                   -5.865787362153524
9.67E10                   -5.5171588474944935
9.68E10                   -5.197891842872507
9.69E10                   -4.9079824782603625
9.7E10                    -4.64789176155634