% Model:              quadripolo.mph
% Version:            COMSOL 5.5.0.292
% Date:               May 1 2020, 09:13
% Dimension:          1
% Nodes:              153
% Expressions:        1
% Description:        Global
% x                       Height
9.2E10                    -5.99607075052547
9.21E10                   -6.45085287647478
9.22E10                   -6.92117539216466
9.23E10                   -7.39791239777062
9.24E10                   -7.87890696421316
9.25E10                   -8.36559885610426
9.26E10                   -8.86131557578632
9.27E10                   -9.37042387267488
9.28E10                   -9.89792400625939
9.29E10                   -10.4492746601283
9.3E10                    -11.0303421490586
9.31E10                   -11.6474217034975
9.32E10                   -12.3073064362382
9.33E10                   -13.0173933109608
9.34E10                   -13.7858198426864
9.35E10                   -14.6216197097434
9.36E10                   -15.5348622892877
9.37E10                   -16.5366785618697
9.38E10                   -17.6389182997881
9.39E10                   -18.8527918196619
9.4E10                    -20.1848871601227
9.41E10                   -21.6267114737384
9.42E10                   -23.1296667268471
9.43E10                   -24.5555642634817
9.44E10                   -25.6249519872451
9.45E10                   -26.0000000000000
9.46E10                   -25.3541473940254
9.47E10                   -24.1849778596370
9.48E10                   -22.8227024269444
9.49E10                   -21.4658938902898
9.5E10                    -20.1952195058705
9.51E10                   -19.0317742720014
9.52E10                   -17.9727089178337
9.53E10                   -17.0071529177242
9.54E10                   -16.1225323802217
9.55E10                   -15.3068646762822
9.56E10                   -14.5494609026139
9.57E10                   -13.8410270539473
9.58E10                   -13.1735596112498
9.59E10                   -12.5401909602014
9.6E10                    -11.9350432084574
9.61E10                   -11.3531100147515
9.62E10                   -10.7901705874481
9.63E10                   -10.2427340580470
9.64E10                   -9.70801018435945
9.65E10                   -9.18390133679573
9.66E10                   -8.66900991888957
9.67E10                   -8.16265433245548
9.68E10                   -7.66488519054066
9.69E10                   -7.17649179863003
9.7E10                    -6.69898728690794

9.2E10                    -5.880458838505286
9.21E10                   -5.176175605325284
9.22E10                   -4.6639865359498005
9.23E10                   -4.271568044078561
9.24E10                   -3.9567891977205565
9.25E10                   -3.6941199492616588
9.26E10                   -3.4676376913925244
9.27E10                   -3.267230089102936
9.28E10                   -3.0864335707966246
9.29E10                   -2.9211481728780035
9.3E10                    -2.7688408571051957
9.31E10                   -2.628030831039671
9.32E10                   -2.497943160491621
9.33E10                   -2.378266386376769
9.34E10                   -2.2689771691933327
9.35E10                   -2.1702105200670814
9.36E10                   -2.0821631541978887
9.37E10                   -2.0050226508004476
9.38E10                   -1.938917923255738
9.39E10                   -1.8838878798973964
9.4E10                    -1.839865664088307
9.41E10                   -1.8066759070938743
9.42E10                   -1.7840423031600472
9.43E10                   -1.771602725965671
9.44E10                   -1.7689291668254952
9.45E10                   -1.775550028454784
9.46E10                   -1.7909727337544017
9.47E10                   -1.8147051483664867
9.48E10                   -1.8462748951518897
9.49E10                   -1.885246189600109
9.5E10                    -1.9312342965811884
9.51E10                   -1.9839180727832704
9.52E10                   -2.0430513095273857
9.53E10                   -2.1084737382493217
9.54E10                   -2.180122627123366
9.55E10                   -2.258045907828526
9.56E10                   -2.3424177513903706
9.57E10                   -2.4335574823848933
9.58E10                   -2.5319526961919827
9.59E10                   -2.6382874314497946
9.6E10                    -2.7534762478781953
9.61E10                   -2.878705057599331
9.62E10                   -3.0154795356945217
9.63E10                   -3.165681863110593
9.64E10                   -3.3316363943699754
9.65E10                   -3.516184553931539
9.66E10                   -3.722768820341504
9.67E10                   -3.9555250686492376
9.68E10                   -4.219381912956442
9.69E10                   -4.5201653027365065
9.7E10                    -4.864707058537526

9.2E10                    -5.99607075052547
9.21E10                   -6.45085287647478
9.22E10                   -6.92117539216466
9.23E10                   -7.39791239777062
9.24E10                   -7.87890696421316
9.25E10                   -8.36559885610426
9.26E10                   -8.86131557578632
9.27E10                   -9.37042387267488
9.28E10                   -9.89792400625939
9.29E10                   -10.4492746601283
9.3E10                    -11.0303421490586
9.31E10                   -11.6474217034975
9.32E10                   -12.3073064362382
9.33E10                   -13.0173933109608
9.34E10                   -13.7858198426864
9.35E10                   -14.6216197097434
9.36E10                   -15.5348622892877
9.37E10                   -16.5366785618697
9.38E10                   -17.6389182997881
9.39E10                   -18.8527918196619
9.4E10                    -20.1848871601227
9.41E10                   -21.6267114737384
9.42E10                   -23.1296667268471
9.43E10                   -24.5555642634817
9.44E10                   -25.6249519872451
9.45E10                   -26.0000000000000
9.46E10                   -25.3541473940254
9.47E10                   -24.1849778596370
9.48E10                   -22.8227024269444
9.49E10                   -21.4658938902898
9.5E10                    -20.1952195058705
9.51E10                   -19.0317742720014
9.52E10                   -17.9727089178337
9.53E10                   -17.0071529177242
9.54E10                   -16.1225323802217
9.55E10                   -15.3068646762822
9.56E10                   -14.5494609026139
9.57E10                   -13.8410270539473
9.58E10                   -13.1735596112498
9.59E10                   -12.5401909602014
9.6E10                    -11.9350432084574
9.61E10                   -11.3531100147515
9.62E10                   -10.7901705874481
9.63E10                   -10.2427340580470
9.64E10                   -9.70801018435945
9.65E10                   -9.18390133679573
9.66E10                   -8.66900991888957
9.67E10                   -8.16265433245548
9.68E10                   -7.66488519054066
9.69E10                   -7.17649179863003
9.7E10                    -6.69898728690794