% Model:              quadripolo.mph
% Version:            COMSOL 5.5.0.292
% Date:               Mar 2 2020, 16:01
% Dimension:          1
% Nodes:              153
% Expressions:        1
% Description:        Global
% x                       Height
9.2E10                    -6.510731284320373
9.21E10                   -6.255069326382314
9.22E10                   -6.134254127206452
9.23E10                   -6.115212325233757
9.24E10                   -6.177260690863685
9.25E10                   -6.307727846113801
9.26E10                   -6.49920148094735
9.27E10                   -6.74780537998774
9.28E10                   -7.0521214410835835
9.29E10                   -7.412518003158924
9.3E10                    -7.8307401876504406
9.31E10                   -8.309677054230336
9.32E10                   -8.85325694755875
9.33E10                   -9.466444580168297
9.34E10                   -10.155325108051773
9.35E10                   -10.92726128886588
9.36E10                   -11.791092337617364
9.37E10                   -12.757284225074855
9.38E10                   -13.83777772692424
9.39E10                   -15.044842515008607
9.4E10                    -16.387083592413406
9.41E10                   -17.857779581413816
9.42E10                   -19.404327017634326
9.43E10                   -20.86242013727033
9.44E10                   -21.88333964022301
9.45E10                   -22.061352221361606
9.46E10                   -21.3581125822066
9.47E10                   -20.15160415439091
9.48E10                   -18.81210687437429
9.49E10                   -17.52419930872411
9.5E10                    -16.348931227088109
9.51E10                   -15.294930498564906
9.52E10                   -14.353052667936772
9.53E10                   -13.509853413294358
9.54E10                   -12.752268198372873
9.55E10                   -12.068985984121468
9.56E10                   -11.450644396136504
9.57E10                   -10.88964202542775
9.58E10                   -10.379859633982264
9.59E10                   -9.916392371302178
9.6E10                    -9.495323853350087
9.61E10                   -9.11354675249369
9.62E10                   -8.768625614412276
9.63E10                   -8.458695246796837
9.64E10                   -8.182388020833708
9.65E10                   -7.938784124716765
9.66E10                   -7.727379533146479
9.67E10                   -7.548066912019175
9.68E10                   -7.401124699448941
9.69E10                   -7.287209058514608
9.7E10                    -7.207342138208758
9.2E10                    -5.093990318505501
9.21E10                   -4.518794944402137
9.22E10                   -4.085289134751394
9.23E10                   -3.7466404878905175
9.24E10                   -3.4727301156969634
9.25E10                   -3.243982531349327
9.26E10                   -3.0475835632132426
9.27E10                   -2.8751322227769007
9.28E10                   -2.721156467755643
9.29E10                   -2.5821540907963363
9.3E10                    -2.4559570313377272
9.31E10                   -2.3412983575398134
9.32E10                   -2.2375091960640456
9.33E10                   -2.144301626522099
9.34E10                   -2.0616108715640733
9.35E10                   -1.98948052947538
9.36E10                   -1.9279807487953673
9.37E10                   -1.8771527169398936
9.38E10                   -1.836974631330138
9.39E10                   -1.8073451221076764
9.4E10                    -1.7880803820229074
9.41E10                   -1.7789213704899005
9.42E10                   -1.779547613595927
9.43E10                   -1.789594432171817
9.44E10                   -1.8086709198426263
9.45E10                   -1.8363766232977417
9.46E10                   -1.8723155746259657
9.47E10                   -1.916107009518468
9.48E10                   -1.9673927065091255
9.49E10                   -2.025841355122912
9.5E10                    -2.091150684432163
9.51E10                   -2.1630482603880083
9.52E10                   -2.241291909481475
9.53E10                   -2.3256706769615083
9.54E10                   -2.416007113257735
9.55E10                   -2.512161535145708
9.56E10                   -2.6140387574782538
9.57E10                   -2.721597660280131
9.58E10                   -2.8348638613824386
9.59E10                   -2.9539457167281498
9.6E10                    -3.0790538730684673
9.61E10                   -3.2105246498569717
9.62E10                   -3.3488476232136883
9.63E10                   -3.4946979157604545
9.64E10                   -3.6489738493932595
9.65E10                   -3.812840777422144
9.66E10                   -3.9877820570367923
9.67E10                   -4.175658225726692
9.68E10                   -4.378775471940012
9.69E10                   -4.599964400381093
9.7E10                    -4.842669844371511
9.2E10                    -6.510731284320373
9.21E10                   -6.255069326382314
9.22E10                   -6.134254127206452
9.23E10                   -6.115212325233757
9.24E10                   -6.177260690863685
9.25E10                   -6.307727846113801
9.26E10                   -6.49920148094735
9.27E10                   -6.74780537998774
9.28E10                   -7.0521214410835835
9.29E10                   -7.412518003158924
9.3E10                    -7.8307401876504406
9.31E10                   -8.309677054230336
9.32E10                   -8.85325694755875
9.33E10                   -9.466444580168297
9.34E10                   -10.155325108051773
9.35E10                   -10.92726128886588
9.36E10                   -11.791092337617364
9.37E10                   -12.757284225074855
9.38E10                   -13.83777772692424
9.39E10                   -15.044842515008607
9.4E10                    -16.387083592413406
9.41E10                   -17.857779581413816
9.42E10                   -19.404327017634326
9.43E10                   -20.86242013727033
9.44E10                   -21.88333964022301
9.45E10                   -22.061352221361606
9.46E10                   -21.3581125822066
9.47E10                   -20.15160415439091
9.48E10                   -18.81210687437429
9.49E10                   -17.52419930872411
9.5E10                    -16.348931227088109
9.51E10                   -15.294930498564906
9.52E10                   -14.353052667936772
9.53E10                   -13.509853413294358
9.54E10                   -12.752268198372873
9.55E10                   -12.068985984121468
9.56E10                   -11.450644396136504
9.57E10                   -10.88964202542775
9.58E10                   -10.379859633982264
9.59E10                   -9.916392371302178
9.6E10                    -9.495323853350087
9.61E10                   -9.11354675249369
9.62E10                   -8.768625614412276
9.63E10                   -8.458695246796837
9.64E10                   -8.182388020833708
9.65E10                   -7.938784124716765
9.66E10                   -7.727379533146479
9.67E10                   -7.548066912019175
9.68E10                   -7.401124699448941
9.69E10                   -7.287209058514608
9.7E10                    -7.207342138208758