% Model:              quadripolo.mph
% Version:            COMSOL 5.5.0.292
% Date:               Mar 2 2020, 16:01
% Dimension:          1
% Nodes:              153
% Expressions:        1
% Description:        Global
% x                       Height
9.2E10                    -6.510731284320373
9.21E10                   -6.255069326382314
9.22E10                   -6.134254127206452
9.23E10                   -6.115212325233757
9.24E10                   -6.177260690863685
9.25E10                   -6.307727846113801
9.26E10                   -6.49920148094735
9.27E10                   -6.74780537998774
9.28E10                   -7.0521214410835835
9.29E10                   -7.412518003158924
9.3E10                    -7.8307401876504406
9.31E10                   -8.309677054230336
9.32E10                   -8.85325694755875
9.33E10                   -9.466444580168297
9.34E10                   -10.155325108051773
9.35E10                   -10.92726128886588
9.36E10                   -11.791092337617364
9.37E10                   -12.757284225074855
9.38E10                   -13.83777772692424
9.39E10                   -15.044842515008607
9.4E10                    -16.387083592413406
9.41E10                   -17.857779581413816
9.42E10                   -19.404327017634326
9.43E10                   -20.86242013727033
9.44E10                   -21.88333964022301
9.45E10                   -22.061352221361606
9.46E10                   -21.3581125822066
9.47E10                   -20.15160415439091
9.48E10                   -18.81210687437429
9.49E10                   -17.52419930872411
9.5E10                    -16.348931227088109
9.51E10                   -15.294930498564906
9.52E10                   -14.353052667936772
9.53E10                   -13.509853413294358
9.54E10                   -12.752268198372873
9.55E10                   -12.068985984121468
9.56E10                   -11.450644396136504
9.57E10                   -10.88964202542775
9.58E10                   -10.379859633982264
9.59E10                   -9.916392371302178
9.6E10                    -9.495323853350087
9.61E10                   -9.11354675249369
9.62E10                   -8.768625614412276
9.63E10                   -8.458695246796837
9.64E10                   -8.182388020833708
9.65E10                   -7.938784124716765
9.66E10                   -7.727379533146479
9.67E10                   -7.548066912019175
9.68E10                   -7.401124699448941
9.69E10                   -7.287209058514608
9.7E10                    -7.207342138208758
9.2E10                    -6.510731284320373
9.21E10                   -6.255069326382314
9.22E10                   -6.134254127206452
9.23E10                   -6.115212325233757
9.24E10                   -6.177260690863685
9.25E10                   -6.307727846113801
9.26E10                   -6.49920148094735
9.27E10                   -6.74780537998774
9.28E10                   -7.0521214410835835
9.29E10                   -7.412518003158924
9.3E10                    -7.8307401876504406
9.31E10                   -8.309677054230336
9.32E10                   -8.85325694755875
9.33E10                   -9.466444580168297
9.34E10                   -10.155325108051773
9.35E10                   -10.92726128886588
9.36E10                   -11.791092337617364
9.37E10                   -12.757284225074855
9.38E10                   -13.83777772692424
9.39E10                   -15.044842515008607
9.4E10                    -16.387083592413406
9.41E10                   -17.857779581413816
9.42E10                   -19.404327017634326
9.43E10                   -20.86242013727033
9.44E10                   -21.88333964022301
9.45E10                   -22.061352221361606
9.46E10                   -21.3581125822066
9.47E10                   -20.15160415439091
9.48E10                   -18.81210687437429
9.49E10                   -17.52419930872411
9.5E10                    -16.348931227088109
9.51E10                   -15.294930498564906
9.52E10                   -14.353052667936772
9.53E10                   -13.509853413294358
9.54E10                   -12.752268198372873
9.55E10                   -12.068985984121468
9.56E10                   -11.450644396136504
9.57E10                   -10.88964202542775
9.58E10                   -10.379859633982264
9.59E10                   -9.916392371302178
9.6E10                    -9.495323853350087
9.61E10                   -9.11354675249369
9.62E10                   -8.768625614412276
9.63E10                   -8.458695246796837
9.64E10                   -8.182388020833708
9.65E10                   -7.938784124716765
9.66E10                   -7.727379533146479
9.67E10                   -7.548066912019175
9.68E10                   -7.401124699448941
9.69E10                   -7.287209058514608
9.7E10                    -7.207342138208758
9.2E10                    -6.901655493762902
9.21E10                   -6.275805406907563
9.22E10                   -5.711028394358947
9.23E10                   -5.213262890698298
9.24E10                   -4.775868495411893
9.25E10                   -4.389552835386154
9.26E10                   -4.045793582554188
9.27E10                   -3.7377298179262644
9.28E10                   -3.460161606744025
9.29E10                   -3.2092828622507286
9.3E10                    -2.982371548565841
9.31E10                   -2.7775093895354015
9.32E10                   -2.593348297510678
9.33E10                   -2.428922601764887
9.34E10                   -2.2835014974230767
9.35E10                   -2.1564759589890965
9.36E10                   -2.047275275515382
9.37E10                   -1.9553091831037217
9.38E10                   -1.87993199287442
9.39E10                   -1.8204251869366996
9.4E10                    -1.7759948509711456
9.41E10                   -1.7457802119788954
9.42E10                   -1.7288695921654054
9.43E10                   -1.7243203456240015
9.44E10                   -1.731179815475442
9.45E10                   -1.7485049840774307
9.46E10                   -1.7753792069492311
9.47E10                   -1.8109251357325973
9.48E10                   -1.8543135734067362
9.49E10                   -1.904768516062736
9.5E10                    -1.9615689958580949
9.51E10                   -2.0240485484562774
9.52E10                   -2.091593201684943
9.53E10                   -2.163638847246982
9.54E10                   -2.239668745564132
9.55E10                   -2.3192117564986834
9.56E10                   -2.401841713475304
9.57E10                   -2.487178187447939
9.58E10                   -2.5748887354563275
9.59E10                   -2.6646926043768895
9.6E10                    -2.7563657652078097
9.61E10                   -2.849747081971881
9.62E10                   -2.9447453616263983
9.63E10                   -3.0413469719271373
9.64E10                   -3.139623633077544
9.65E10                   -3.239739861845184
9.66E10                   -3.3419593448681417
9.67E10                   -3.4466492086391503
9.68E10                   -3.5542807036252864
9.69E10                   -3.6654242015211453
9.7E10                    -3.78073561089601