% Model:              quadripolo.mph
% Version:            COMSOL 5.5.0.292
% Date:               Mar 2 2020, 16:01
% Dimension:          1
% Nodes:              153
% Expressions:        1
% Description:        Global
% x                       Height
9.2E10                    -4.179517325100723
9.21E10                   -4.714586192952307
9.22E10                   -5.226177906359325
9.23E10                   -5.700394417689295
9.24E10                   -6.139323367061
9.25E10                   -6.553091531198325
9.26E10                   -6.954778594762425
9.27E10                   -7.357718533436392
9.28E10                   -7.774340765427093
9.29E10                   -8.215865346203376
9.3E10                    -8.692419502916087
9.31E10                   -9.213343216143858
9.32E10                   -9.787580995283236
9.33E10                   -10.424134091737578
9.34E10                   -11.132594543011026
9.35E10                   -11.923817368464862
9.36E10                   -12.810823430011666
9.37E10                   -13.810074405391218
9.38E10                   -14.94333192451811
9.39E10                   -16.240395416875707
9.4E10                    -17.74298517506681
9.41E10                   -19.50916380824128
9.42E10                   -21.61186394446287
9.43E10                   -24.091193808805293
9.44E10                   -26.653131005037785
9.45E10                   -27.80803492790004
9.46E10                   -26.653131005037785
9.47E10                   -24.091193808805293
9.48E10                   -21.61186394446287
9.49E10                   -19.50916380824128
9.5E10                    -17.659346385232727
9.51E10                   -16.216204393063766
9.52E10                   -14.957646087793922
9.53E10                   -13.843519551192793
9.54E10                   -12.845214268535525
9.55E10                   -11.942052406926951
9.56E10                   -11.11879992499758
9.57E10                   -10.364004940597248
9.58E10                   -9.668888405257569
9.59E10                   -9.026597296693081
9.6E10                    -8.431697533069933
9.61E10                   -7.879827819861964
9.62E10                   -7.36746340194809
9.63E10                   -6.8917561953789965
9.64E10                   -6.450428943735781
9.65E10                   -6.04170827049937
9.66E10                   -5.664286199675864
9.67E10                   -5.317302727843587
9.68E10                   -5.000343836767206
9.69E10                   -4.713450206894759
9.7E10                    -4.45713196751795
9.2E10                    -7.693132685666756
9.21E10                   -6.361017294797177
9.22E10                   -5.436019467661176
9.23E10                   -4.7664325768446805
9.24E10                   -4.261456399926009
9.25E10                   -3.8657093574891728
9.26E10                   -3.5447128081241135
9.27E10                   -3.2766167881940134
9.28E10                   -3.047392400784905
9.29E10                   -2.8479673656251956
9.3E10                    -2.672470483679862
9.31E10                   -2.5171229815533365
9.32E10                   -2.37951688128668
9.33E10                   -2.2581319226939516
9.34E10                   -2.1520049302698876
9.35E10                   -2.0605009099129163
9.36E10                   -1.9831553562666984
9.37E10                   -1.9195686868779505
9.38E10                   -1.8693400450833466
9.39E10                   -1.8320310995627345
9.4E10                    -1.807152261748257
9.41E10                   -1.7941647903763176
9.42E10                   -1.7924930650501962
9.43E10                   -1.8015421517986412
9.44E10                   -1.8207167410243295
9.45E10                   -1.8494385861919755
9.46E10                   -1.887160627713624
9.47E10                   -1.9333769569482886
9.48E10                   -1.9876285845663033
9.49E10                   -2.049505582407468
9.5E10                    -2.1186465584110135
9.51E10                   -2.1947366172976883
9.52E10                   -2.2775049901974342
9.53E10                   -2.3667234276919915
9.54E10                   -2.4622062874652246
9.55E10                   -2.563813051005848
9.56E10                   -2.6714538080363077
9.57E10                   -2.785098078993621
9.58E10                   -2.9047872229603877
9.59E10                   -3.030650610904504
9.6E10                    -3.1629257346697415
9.61E10                   -3.3019824674533016
9.62E10                   -3.448351782986329
9.63E10                   -3.602759365417623
9.64E10                   -3.7661646830226045
9.65E10                   -3.939806234725325
9.66E10                   -4.125253781731723
9.67E10                   -4.324468412716972
9.68E10                   -4.539871216906498
9.69E10                   -4.774421104502922
9.7E10                    -5.031701865866237
9.2E10                    -4.81403433296318
9.21E10                   -5.053258323837313
9.22E10                   -5.31133433296408
9.23E10                   -5.653258653837313
9.24E10                   -6.064166716147037
9.25E10                   -6.511782471030774
9.26E10                   -6.979699979310458
9.27E10                   -7.461534540355961
9.28E10                   -7.956886856076383
9.29E10                   -8.468875647915029
9.3E10                    -9.002733602068874
9.31E10                   -9.565061554516241
9.32E10                   -10.163480655417965
9.33E10                   -10.806532483318474
9.34E10                   -11.50374814093488
9.35E10                   -12.265849273435023
9.36E10                   -13.10506325125349
9.37E10                   -14.035527033286616
9.38E10                   -15.073690727061337
9.39E10                   -16.238418783370577
9.4E10                    -17.54983939928663
9.41E10                   -19.02406026687959
9.42E10                   -20.655299726198297
9.43E10                   -22.36359553052477
9.44E10                   -23.877941464321587
9.45E10                   -24.657685024818043
9.46E10                   -24.299147657795025
9.47E10                   -23.099655394428847
9.48E10                   -21.624184416379958
9.49E10                   -20.19155161981506
9.5E10                    -18.90419840020779
9.51E10                   -17.774869983520254
9.52E10                   -16.788782325376665
9.53E10                   -15.925548140202878
9.54E10                   -15.165857661077782
9.55E10                   -14.493076532011116
9.56E10                   -13.893266010314917
9.57E10                   -13.354784696774065
9.58E10                   -12.867841916673463
9.59E10                   -12.42410921859954
9.60E10                   -12.01640997787874
9.61E10                   -11.638480870026708
9.62E10                   -11.284793081376161
9.63E10                   -10.950421699349821
9.64E10                   -10.630953974298993
9.65E10                   -10.322429458829772
9.66E10                   -10.021306919786907
9.67E10                   -9.724454271322909
9.68E10                   -9.42915859687982
9.69E10                   -9.133153639103034
9.7E10                    -8.834661964524082