% Model:              quadripolo.mph
% Version:            COMSOL 5.5.0.292
% Date:               Mar 2 2020, 16:01
% Dimension:          1
% Nodes:              153
% Expressions:        1
% Description:        Global
% x                       Height
9.2E10                    -1.9434621632959073
9.21E10                   -2.5187712055342932
9.22E10                   -3.2112543841843166
9.23E10                   -3.9267744442051864
9.24E10                   -4.599470779653006
9.25E10                   -5.204028751225936
9.26E10                   -5.744951789819598
9.27E10                   -6.241019068396358
9.28E10                   -6.714449274960909
9.29E10                   -7.185745495328115
9.3E10                    -7.672175271489886
9.31E10                   -8.18795213275903
9.32E10                   -8.745009863648667
9.33E10                   -9.353890669278679
9.34E10                   -10.024604362704208
9.35E10                   -10.767464160130036
9.36E10                   -11.593961469957312
9.37E10                   -12.517756921507285
9.38E10                   -13.55584454789896
9.39E10                   -14.729834193622818
9.4E10                    -16.066859158207286
9.41E10                   -17.59798264708344
9.42E10                   -19.34594002203565
9.43E10                   -21.27290443186725
9.44E10                   -23.108099637201622
9.45E10                   -24.07536711445555
9.46E10                   -23.434316150312966
9.47E10                   -21.697041496472668
9.48E10                   -19.738672611367654
9.49E10                   -17.926436787904905
9.5E10                    -16.329137054668273
9.51E10                   -14.930017791769274
9.52E10                   -13.697392791590378
9.53E10                   -12.602240005313497
9.54E10                   -11.621237026295177
9.55E10                   -10.736273391097637
9.56E10                   -9.933353450271131
9.57E10                   -9.201601626840306
9.58E10                   -8.532495760273621
9.59E10                   -7.919308373359138
9.6E10                    -7.356709504515088
9.61E10                   -6.840488892252643
9.62E10                   -6.367364912082638
9.63E10                   -5.934856279360504
9.64E10                   -5.541198884049837
9.65E10                   -5.1852943061608165
9.66E10                   -4.866678906359455
9.67E10                   -4.585503191165902
9.68E10                   -4.3425106589513325
9.69E10                   -4.139003809489024
9.7E10                    -3.976782866014583
9.2E10                    -9.474806325344924
9.21E10                   -7.1254437180248145
9.22E10                   -5.636441847313282
9.23E10                   -4.674280056249431
9.24E10                   -4.03297935318634
9.25E10                   -3.586982178500419
9.26E10                   -3.261085940558714
9.27E10                   -3.0105792581855795
9.28E10                   -2.8088657423682384
9.29E10                   -2.6400843545533843
9.3E10                    -2.4947836609857803
9.31E10                   -2.3673803186617453
9.32E10                   -2.2546446461891487
9.33E10                   -2.154779720636801
9.34E10                   -2.0668489868284374
9.35E10                   -1.9904136876410417
9.36E10                   -1.9253007425007904
9.37E10                   -1.8714547412174733
9.38E10                   -1.8288461332514763
9.39E10                   -1.7974179661308265
9.4E10                    -1.777059302627228
9.41E10                   -1.7675967934941903
9.42E10                   -1.768797977584073
9.43E10                   -1.7803813739171246
9.44E10                   -1.8020296510098106
9.45E10                   -1.833403245100666
9.46E10                   -1.8741527805725249
9.47E10                   -1.923929502559765
9.48E10                   -1.982393631048571
9.49E10                   -2.049221064938482
9.5E10                    -2.124109199645114
9.51E10                   -2.206782788647132
9.52E10                   -2.29700080906613
9.53E10                   -2.394565224125234
9.54E10                   -2.499332413884706
9.55E10                   -2.6112279096263307
9.56E10                   -2.730264949078802
9.57E10                   -2.8565672918625724
9.58E10                   -2.990396708541565
9.59E10                   -3.1321855824803038
9.6E10                    -3.2825751300186163
9.61E10                   -3.442459828609728
9.62E10                   -3.6130387097525176
9.63E10                   -3.795874175304505
9.64E10                   -3.992958867619117
9.65E10                   -4.206790783949314
9.66E10                   -4.440456176097683
9.67E10                   -4.697718714512228
9.68E10                   -4.983111839122704
9.69E10                   -5.302029152073155
9.7E10                    -5.6608052516226195
9.2E10                    -9.863649071763735
9.21E10                   -8.628222794938402
9.22E10                   -7.586608848976257
9.23E10                   -6.842967393228795
9.24E10                   -6.460900898093306
9.25E10                   -6.42807980390708
9.26E10                   -6.6701330013339195
9.27E10                   -7.0961493796918145
9.28E10                   -7.632926994766485
9.29E10                   -8.234311757853902
9.3E10                    -8.876517925986121
9.31E10                   -9.550567566354216
9.32E10                   -10.256322427031797
9.33E10                   -10.998701136101992
9.34E10                   -11.785519710217917
9.35E10                   -12.626316086461873
9.36E10                   -13.531661910270486
9.37E10                   -14.512538224700018
9.38E10                   -15.579245107050816
9.39E10                   -16.7388886297062
9.4E10                    -17.989461168845803
9.41E10                   -19.30657361588367
9.42E10                   -20.61705479588275
9.43E10                   -21.761010907867483
9.44E10                   -22.486587186484847
9.45E10                   -22.575907699184775
9.46E10                   -22.046523129590582
9.47E10                   -21.132152174697033
9.48E10                   -20.075559273993164
9.49E10                   -19.023084740984707
9.5E10                    -18.039245758429402
9.51E10                   -17.144311960641858
9.52E10                   -16.338796706699455
9.53E10                   -15.615504568748449
9.54E10                   -14.964841180897768
9.55E10                   -14.376999922244572
9.56E10                   -13.842782547080706
9.57E10                   -13.353842797004244
9.58E10                   -12.902698674312107
9.59E10                   -12.482663454796178
9.6E10                    -12.087759902233834
9.61E10                   -11.712644719174357
9.62E10                   -11.352553988517325
9.63E10                   -11.003273345879395
9.64E10                   -10.661133556695335
9.65E10                   -10.32303060490613
9.66E10                   -9.986468155316729
9.67E10                   -9.649618737133379
9.68E10                   -9.311397914729666
9.69E10                   -8.97154295913703
9.7E10                    -8.630684195493899