% Model:              quadripolo.mph
% Version:            COMSOL 5.5.0.292
% Date:               Mar 2 2020, 16:01
% Dimension:          1
% Nodes:              153
% Expressions:        1
% Description:        Global
% x                       Height
9.2E10                    -9.474806325344924
9.21E10                   -7.1254437180248145
9.22E10                   -5.636441847313282
9.23E10                   -4.674280056249431
9.24E10                   -4.03297935318634
9.25E10                   -3.586982178500419
9.26E10                   -3.261085940558714
9.27E10                   -3.0105792581855795
9.28E10                   -2.8088657423682384
9.29E10                   -2.6400843545533843
9.3E10                    -2.4947836609857803
9.31E10                   -2.3673803186617453
9.32E10                   -2.2546446461891487
9.33E10                   -2.154779720636801
9.34E10                   -2.0668489868284374
9.35E10                   -1.9904136876410417
9.36E10                   -1.9253007425007904
9.37E10                   -1.8714547412174733
9.38E10                   -1.8288461332514763
9.39E10                   -1.7974179661308265
9.4E10                    -1.777059302627228
9.41E10                   -1.7675967934941903
9.42E10                   -1.768797977584073
9.43E10                   -1.7803813739171246
9.44E10                   -1.8020296510098106
9.45E10                   -1.833403245100666
9.46E10                   -1.8741527805725249
9.47E10                   -1.923929502559765
9.48E10                   -1.982393631048571
9.49E10                   -2.049221064938482
9.5E10                    -2.124109199645114
9.51E10                   -2.206782788647132
9.52E10                   -2.29700080906613
9.53E10                   -2.394565224125234
9.54E10                   -2.499332413884706
9.55E10                   -2.6112279096263307
9.56E10                   -2.730264949078802
9.57E10                   -2.8565672918625724
9.58E10                   -2.990396708541565
9.59E10                   -3.1321855824803038
9.6E10                    -3.2825751300186163
9.61E10                   -3.442459828609728
9.62E10                   -3.6130387097525176
9.63E10                   -3.795874175304505
9.64E10                   -3.992958867619117
9.65E10                   -4.206790783949314
9.66E10                   -4.440456176097683
9.67E10                   -4.697718714512228
9.68E10                   -4.983111839122704
9.69E10                   -5.302029152073155
9.7E10                    -5.6608052516226195
9.2E10                    -8.505114346186517
9.21E10                   -6.876665409023369
9.22E10                   -5.937371249018167
9.23E10                   -5.448642356891517
9.24E10                   -5.25161016698827
9.25E10                   -5.246515116655631
9.26E10                   -5.373677735682066
9.27E10                   -5.59860789629136
9.28E10                   -5.902077028551337
9.29E10                   -6.274051544949998
9.3E10                    -6.710136851326196
9.31E10                   -7.209536365638592
9.32E10                   -7.77390576214982
9.33E10                   -8.406742860111997
9.34E10                   -9.113108918232665
9.35E10                   -9.899559287577059
9.36E10                   -10.774188475223852
9.37E10                   -11.74665973839689
9.38E10                   -12.827940161140914
9.39E10                   -14.029042565163913
9.4E10                    -15.35697439591599
9.41E10                   -16.803360211585623
9.42E10                   -18.315569226956892
9.43E10                   -19.73649168749435
9.44E10                   -20.740205000486718
9.45E10                   -20.94534991250645
9.46E10                   -20.29706084662338
9.47E10                   -19.136063374009392
9.48E10                   -17.82024623200249
9.49E10                   -16.53900087011993
9.5E10                    -15.360051373712826
9.51E10                   -14.296628090472387
9.52E10                   -13.342395279971576
9.53E10                   -12.485628733674275
9.54E10                   -11.714358774229169
9.55E10                   -11.017999202658682
9.56E10                   -10.387680364438799
9.57E10                   -9.816139354974496
9.58E10                   -9.297488963398976
9.59E10                   -8.82698195698747
9.6E10                    -8.400808223679494
9.61E10                   -8.015932129358177
9.62E10                   -7.6699664209784775
9.63E10                   -7.361075363974959
9.64E10                   -7.087898798848612
9.65E10                   -6.849488477988249
9.66E10                   -6.645247581651806
9.67E10                   -6.474863408377882
9.68E10                   -6.338221902875144
9.69E10                   -6.235291266597972
9.7E10                    -6.165961206693141
9.2E10                    -8.492120180419452
9.21E10                   -6.866729475836731
9.22E10                   -5.929470767586778
9.23E10                   -5.442213908330436
9.24E10                   -5.246309058922792
9.25E10                   -5.2421148055107345
9.26E10                   -5.370021878570206
9.27E10                   -5.595585384577879
9.28E10                   -5.89960830920616
9.29E10                   -6.2720811165917105
9.3E10                    -6.708629573804169
9.31E10                   -7.2084765323012645
9.32E10                   -7.77329862751141
9.33E10                   -8.406618871834038
9.34E10                   -9.113531491086125
9.35E10                   -9.900637779799155
9.36E10                   -10.776099358474735
9.37E10                   -11.749681220871256
9.38E10                   -12.83250932742134
9.39E10                   -14.035849673051636
9.4E10                    -15.367112750544067
9.41E10                   -16.818528024192627
9.42E10                   -18.338164839035574
9.43E10                   -19.768860842959313
9.44E10                   -20.781559491349405
9.45E10                   -20.988438435011098
9.46E10                   -20.33314722587965
9.47E10                   -19.16228561716878
9.48E10                   -17.8381357582387
9.49E10                   -16.550897152764307
9.5E10                    -15.367803841944664
9.51E10                   -14.301503894342527
9.52E10                   -13.345240181523703
9.53E10                   -12.48701438617138
9.54E10                   -11.714681541023555
9.55E10                   -11.017541830931787
9.56E10                   -10.38665013150136
9.57E10                   -9.81469200994891
9.58E10                   -9.295744136044053
9.59E10                   -8.825033384968886
9.6E10                    -8.39873078074987
9.61E10                   -8.013786843730614
9.62E10                   -7.667804212434043
9.63E10                   -7.358939957660226
9.64E10                   -7.085829112497314
9.65E10                   -6.847520680857297
9.66E10                   -6.643416960602875
9.67E10                   -6.473206131959092
9.68E10                   -6.336776735690234
9.69E10                   -6.234101243320652
9.7E10                    -6.165075217412481