% Model:              quadripolo.mph
% Version:            COMSOL 5.5.0.292
% Date:               Mar 2 2020, 16:01
% Dimension:          1
% Nodes:              153
% Expressions:        1
% Description:        Global
% x                       Height
9.2E10                    -9.86525209996833
9.21E10                   -8.630074407451735
9.22E10                   -7.58822651716753
9.23E10                   -6.844019646984315
9.24E10                   -6.461180158716894
9.25E10                   -6.427471145722423
9.26E10                   -6.668584800497039
9.27E10                   -7.093649320505248
9.28E10                   -7.62948426256399
9.29E10                   -8.229944683355445
9.3E10                    -8.871245783934366
9.31E10                   -9.544405247122778
9.32E10                   -10.249276949202331
9.33E10                   -10.990769268955836
9.34E10                   -11.776686273519623
9.35E10                   -12.616552828309
9.36E10                   -13.52092736892061
9.37E10                   -14.500779978796244
9.38E10                   -15.56640804900184
9.39E10                   -16.72493800283224
9.4E10                    -17.974440225508182
9.41E10                   -19.290735434473913
9.42E10                   -20.60111722220803
9.43E10                   -21.7464602257923
9.44E10                   -22.47546788903614
9.45E10                   -22.569412237633987
9.46E10                   -22.043836388988836
9.47E10                   -21.13145027508302
9.48E10                   -20.075390677997326
9.49E10                   -19.022670448013113
9.5E10                    -18.0382575360685
9.51E10                   -17.142651010440453
9.52E10                   -16.336468018268057
9.53E10                   -15.612556560261686
9.54E10                   -14.961338658445202
9.55E10                   -14.373012591599789
9.56E10                   -13.838380556377833
9.57E10                   -13.349095389447811
9.58E10                   -12.897674155444594
9.59E10                   -12.477429642560887
9.6E10                    -12.082384664880564
9.61E10                   -11.707196404860378
9.62E10                   -11.347101641989799
9.63E10                   -10.997886651899849
9.64E10                   -10.655882475483265
9.65E10                   -10.317984685699885
9.66E10                   -9.981695536878282
9.67E10                   -9.645184871094859
9.68E10                   -9.307364078340298
9.69E10                   -8.967964654997639
9.7E10                    -8.627609562034802
9.2E10                    -8.505114346186517
9.21E10                   -6.876665409023369
9.22E10                   -5.937371249018167
9.23E10                   -5.448642356891517
9.24E10                   -5.25161016698827
9.25E10                   -5.246515116655631
9.26E10                   -5.373677735682066
9.27E10                   -5.59860789629136
9.28E10                   -5.902077028551337
9.29E10                   -6.274051544949998
9.3E10                    -6.710136851326196
9.31E10                   -7.209536365638592
9.32E10                   -7.77390576214982
9.33E10                   -8.406742860111997
9.34E10                   -9.113108918232665
9.35E10                   -9.899559287577059
9.36E10                   -10.774188475223852
9.37E10                   -11.74665973839689
9.38E10                   -12.827940161140914
9.39E10                   -14.029042565163913
9.4E10                    -15.35697439591599
9.41E10                   -16.803360211585623
9.42E10                   -18.315569226956892
9.43E10                   -19.73649168749435
9.44E10                   -20.740205000486718
9.45E10                   -20.94534991250645
9.46E10                   -20.29706084662338
9.47E10                   -19.136063374009392
9.48E10                   -17.82024623200249
9.49E10                   -16.53900087011993
9.5E10                    -15.360051373712826
9.51E10                   -14.296628090472387
9.52E10                   -13.342395279971576
9.53E10                   -12.485628733674275
9.54E10                   -11.714358774229169
9.55E10                   -11.017999202658682
9.56E10                   -10.387680364438799
9.57E10                   -9.816139354974496
9.58E10                   -9.297488963398976
9.59E10                   -8.82698195698747
9.6E10                    -8.400808223679494
9.61E10                   -8.015932129358177
9.62E10                   -7.6699664209784775
9.63E10                   -7.361075363974959
9.64E10                   -7.087898798848612
9.65E10                   -6.849488477988249
9.66E10                   -6.645247581651806
9.67E10                   -6.474863408377882
9.68E10                   -6.338221902875144
9.69E10                   -6.235291266597972
9.7E10                    -6.165961206693141
9.2E10                    -5.897063411231352
9.21E10                   -6.257502034374413
9.22E10                   -6.105628289945844
9.23E10                   -5.650878380517592
9.24E10                   -5.112873854035238
9.25E10                   -4.601872845536443
9.26E10                   -4.1517174950416775
9.27E10                   -3.76424290760605
9.28E10                   -3.4316708543300223
9.29E10                   -3.1450154150434546
9.3E10                    -2.8966069955740865
9.31E10                   -2.6805183843470184
9.32E10                   -2.4923464247073173
9.33E10                   -2.328857773192924
9.34E10                   -2.1876594509671254
9.35E10                   -2.0669340872547686
9.36E10                   -1.9652408412162115
9.37E10                   -1.881372415832977
9.38E10                   -1.814257128294283
9.39E10                   -1.7628960336020953
9.4E10                    -1.7263265101275602
9.41E10                   -1.7036049935737843
9.42E10                   -1.6938026732461897
9.43E10                   -1.696009027872691
9.44E10                   -1.7093391350650935
9.45E10                   -1.7329417415138932
9.46E10                   -1.7660060910329543
9.47E10                   -1.807766417827147
9.48E10                   -1.8575037700926067
9.49E10                   -1.914545399556906
9.5E10                    -1.9782623246527908
9.51E10                   -2.048065860018868
9.52E10                   -2.1234039314673465
9.53E10                   -2.2037579022807763
9.54E10                   -2.2886404657699018
9.55E10                   -2.3775949498059106
9.56E10                   -2.470196163747573
9.57E10                   -2.566052719155025
9.58E10                   -2.6648105842974634
9.59E10                   -2.7661574894071568
9.6E10                    -2.8698276762589203
9.61E10                   -2.975606366055406
9.62E10                   -3.083333183432706
9.63E10                   -3.1929036005221123
9.64E10                   -3.304267237042114
9.65E10                   -3.4174215674036
9.66E10                   -3.5323992684248307
9.67E10                   -3.6492471652588043
9.68E10                   -3.7679946502882258
9.69E10                   -3.888609819853364
9.7E10                    -4.010942775896918