% Model:              quadripolo.mph
% Version:            COMSOL 5.5.0.292
% Date:               Apr 28 2020, 08:05
% Dimension:          1
% Nodes:              153
% Expressions:        1
% Description:        Global
% x                       Height
9.2E10                    -6.552458938139996
9.21E10                   -5.6422704348518256
9.22E10                   -4.99610885949123
9.23E10                   -4.51231284313278
9.24E10                   -4.1327120612513175
9.25E10                   -3.8225476845066932
9.26E10                   -3.5603489274347777
9.27E10                   -3.332539940741931
9.28E10                   -3.130423504662207
9.29E10                   -2.948417264967547
9.3E10                    -2.7829779437571824
9.31E10                   -2.6319176627847285
9.32E10                   -2.4939516777464443
9.33E10                   -2.368387707448138
9.34E10                   -2.2549056098335143
9.35E10                   -2.1533977664605373
9.36E10                   -2.063852848832717
9.37E10                   -1.9862726251878065
9.38E10                   -1.9206152865397321
9.39E10                   -1.8667606852309502
9.4E10                    -1.8244936846793416
9.41E10                   -1.7935020551410692
9.42E10                   -1.7733853885717017
9.43E10                   -1.7636715846021271
9.44E10                   -1.7638377035535138
9.45E10                   -1.773332421353503
9.46E10                   -1.7915979175869168
9.47E10                   -1.8180897070380877
9.48E10                   -1.8522936036022164
9.49E10                   -1.8937396125722803
9.5E10                    -1.9420130364216321
9.51E10                   -1.9967634305822717
9.52E10                   -2.0577122628856324
9.53E10                   -2.1246602331917144
9.54E10                   -2.1974952270658084
9.55E10                   -2.2762018403554753
9.56E10                   -2.360873349011257
9.57E10                   -2.4517269339767807
9.58E10                   -2.549122920947369
9.59E10                   -2.6535887680543317
9.6E10                    -2.7658485317674852
9.61E10                   -2.8868585548397703
9.62E10                   -3.017850133339847
9.63E10                   -3.1603799066764067
9.64E10                   -3.316388639278338
9.65E10                   -3.488268881546766
9.66E10                   -3.6789416650843676
9.67E10                   -3.8919418701706627
9.68E10                   -4.131511212533048
9.69E10                   -4.402697040920123
9.7E10                    -4.711454613478287
9.2E10                    -6.854492032485976
9.21E10                   -7.765462422409451
9.22E10                   -8.606392546597728
9.23E10                   -9.374910571010057
9.24E10                   -10.073851210006596
9.25E10                   -10.709276095767798
9.26E10                   -11.289296347279995
9.27E10                   -11.823292305964465
9.28E10                   -12.321339715992458
9.29E10                   -12.79376363275782
9.3E10                    -13.250789660814434
9.31E10                   -13.702275871991716
9.32E10                   -14.157506550165024
9.33E10                   -14.625020652546791
9.34E10                   -15.112436923359349
9.35E10                   -15.626222846011364
9.36E10                   -16.171332253365758
9.37E10                   -16.750601548247325
9.38E10                   -17.363744512670706
9.39E10                   -18.005730225131884
9.4E10                    -18.664316959329945
9.41E10                   -19.31669652458458
9.42E10                   -19.925905936338687
9.43E10                   -20.439292444670684
9.44E10                   -20.79347945651239
9.45E10                   -20.929906317767202
9.46E10                   -20.81735223886564
9.47E10                   -20.466627191443973
9.48E10                   -19.92458925039348
9.49E10                   -19.253008246381075
9.5E10                    -18.508782712802685
9.51E10                   -17.734556033448253
9.52E10                   -16.95806241280164
9.53E10                   -16.19529851881515
9.54E10                   -15.454228107151112
9.55E10                   -14.73775767011727
9.56E10                   -14.045802718092059
9.57E10                   -13.37662692709048
9.58E10                   -12.727682686670557
9.59E10                   -12.096133612864065
9.6E10                    -11.479181864267902
9.61E10                   -10.874278319211966
9.62E10                   -10.279263422319556
9.63E10                   -9.692467204058591
9.64E10                   -9.112784870976041
9.65E10                   -8.539736658542605
9.66E10                   -7.973515452365778
9.67E10                   -7.415021814048972
9.68E10                   -6.865882782679465
9.69E10                   -6.328447855125779
9.7E10                    -5.805752978598566
9.2E10                    -4.9832580991355995
9.21E10                   -4.800160262467943
9.22E10                   -4.727844295611801
9.23E10                   -4.73872017046136
9.24E10                   -4.816744641651905
9.25E10                   -4.952772508070515
9.26E10                   -5.141957296208993
9.27E10                   -5.382263246068528
9.28E10                   -5.673597764947788
9.29E10                   -6.017303350125234
9.3E10                    -6.415868553300327
9.31E10                   -6.872782747687025
9.32E10                   -7.392496083302601
9.33E10                   -7.980467371537139
9.34E10                   -8.643294849215874
9.35E10                   -9.388929132234189
9.36E10                   -10.2269597449096
9.37E10                   -11.16893009318398
9.38E10                   -12.228523262205552
9.39E10                   -13.421137989968786
9.4E10                    -14.761457528472228
9.41E10                   -16.255047651972433
9.42E10                   -17.873384523964916
9.43E10                   -19.490017514642044
9.44E10                   -20.77270143227623
9.45E10                   -21.21654224707822
9.46E10                   -20.628923271182146
9.47E10                   -19.39762817557906
9.48E10                   -17.98784437219006
9.49E10                   -16.635825151735204
9.5E10                    -15.415835932517176
9.51E10                   -14.336110277828155
9.52E10                   -13.384131976263713
9.53E10                   -12.543141430845356
9.54E10                   -11.797431435415247
9.55E10                   -11.133714338835537
9.56E10                   -10.541195830516372
9.57E10                   -10.01127536194631
9.58E10                   -9.537185733883286
9.59E10                   -9.1136702495192
9.6E10                    -8.736721102524825
9.61E10                   -8.403377760516088
9.62E10                   -8.111576928850603
9.63E10                   -7.860044535215964
9.64E10                   -7.648220743256886
9.65E10                   -7.476209672230949
9.66E10                   -7.344745643634601
9.67E10                   -7.255167111346676
9.68E10                   -7.20938778364234
9.69E10                   -7.2098516793737
9.7E10                    -7.259454894125979
