% Model:              dipolo.mph
% Version:            COMSOL 5.5.0.292
% Date:               May 16 2020, 01:59
% Dimension:          1
% Nodes:              153
% Expressions:        1
% Description:        Global
% x                       Height
9.2E10                    -7.384273708119441
9.21E10                   -7.994307170621716
9.22E10                   -8.540383695449814
9.23E10                   -9.018786352671713
9.24E10                   -9.435240810065388
9.25E10                   -9.803013801343642
9.26E10                   -10.13983639136483
9.27E10                   -10.46485134360061
9.28E10                   -10.796392230991774
9.29E10                   -11.150806213427211
9.3E10                    -11.542127683061153
9.31E10                   -11.982283049504092
9.32E10                   -12.481553724491931
9.33E10                   -13.049123999424953
9.34E10                   -13.693625742442217
9.35E10                   -14.423641081037598
9.36E10                   -15.248133646254043
9.37E10                   -16.176738619334976
9.38E10                   -17.219711349318157
9.39E10                   -18.38699682369231
9.4E10                    -19.685037852449398
9.41E10                   -21.107908387728965
9.42E10                   -22.61516451484762
9.43E10                   -24.084871633942168
9.44E10                   -25.25244189992876
9.45E10                   -25.755972208464012
9.46E10                   -25.434733176654053
9.47E10                   -24.519378481599915
9.48E10                   -23.362221839484935
9.49E10                   -22.18815052485192
9.5E10                    -21.090969499150496
9.51E10                   -20.096382775318876
9.52E10                   -19.202830212966855
9.53E10                   -18.399861128772315
9.54E10                   -17.675366423643236
9.55E10                   -17.018157489020474
9.56E10                   -16.418713178005074
9.57E10                   -15.86923454913042
9.58E10                   -15.36345903117976
9.59E10                   -14.896411244996584
9.6E10                    -14.464158194275498
9.61E10                   -14.063592559597662
9.62E10                   -13.692250147493244
9.63E10                   -13.348160536188022
9.64E10                   -13.029727337424713
9.65E10                   -12.735633705989144
9.66E10                   -12.464768724162752
9.67E10                   -12.216170622260432
9.68E10                   -11.988983269613984
9.69E10                   -11.782422885617436
9.7E10                    -11.595752425859311

9.2E10                    -9.012822773558717
9.21E10                   -9.138145010491984
9.22E10                   -9.31068216316548
9.23E10                   -9.527011647896954
9.24E10                   -9.784234770045156
9.25E10                   -10.080110519371466
9.26E10                   -10.413112150155104
9.27E10                   -10.782420445774735
9.28E10                   -11.187867724359828
9.29E10                   -11.629843086736527
9.3E10                    -12.109163530500506
9.31E10                   -12.626907881699442
9.32E10                   -13.184200637546933
9.33E10                   -13.781919565284879
9.34E10                   -14.420282511706242
9.35E10                   -15.09824384368591
9.36E10                   -15.812600450061687
9.37E10                   -16.556681818289558
9.38E10                   -17.31851376910906
9.39E10                   -18.078489566186825
9.4E10                    -18.807021717842353
9.41E10                   -19.463552317563632
9.42E10                   -19.999435052239033
9.43E10                   -20.367156208775278
9.44E10                   -20.53483661120822
9.45E10                   -20.498696490533767
9.46E10                   -20.28444310940231
9.47E10                   -19.93647103690265
9.48E10                   -19.503027785617977
9.49E10                   -19.025677225491183
9.5E10                    -18.53530636713121
9.51E10                   -18.052578384666937
9.52E10                   -17.590157968302726
9.53E10                   -17.15509552232822
9.54E10                   -16.75075307633008
9.55E10                   -16.378179051036298
9.56E10                   -16.037027547901705
9.57E10                   -15.726150159835342
9.58E10                   -15.443967714650988
9.59E10                   -15.188699378294137
9.6E10                    -14.958501164496765
9.61E10                   -14.751547600171754
9.62E10                   -14.566078007802702
9.63E10                   -14.400420900016632
9.64E10                   -14.253004910251537
9.65E10                   -14.122361485269774
9.66E10                   -14.007122558882852
9.67E10                   -13.906015172453207
9.68E10                   -13.817854228237493
9.69E10                   -13.741534081285888
9.7E10                    -13.676019384725302

9.2E10                    -3.4248368900757713
9.21E10                   -3.2389317199753824
9.22E10                   -3.0804606228406706
9.23E10                   -2.9440828741946623
9.24E10                   -2.8251581212463384
9.25E10                   -2.719837864419334
9.26E10                   -2.6250756727453513
9.27E10                   -2.5385797816121185
9.28E10                   -2.4587294055990667
9.29E10                   -2.3844716505257457
9.3E10                    -2.3152112910727176
9.31E10                   -2.25070184170928
9.32E10                   -2.1909435341974954
9.33E10                   -2.136091891367368
9.34E10                   -2.0863792803046155
9.35E10                   -2.042050866709172
9.36E10                   -2.0033155765087347
9.37E10                   -1.9703118962972588
9.38E10                   -1.9430875933726153
9.39E10                   -1.9215917526914539
9.4E10                    -1.9056769826343616
9.41E10                   -1.8951092992203502
9.42E10                   -1.889583095239111
9.43E10                   -1.8887387330555574
9.44E10                   -1.8921806272481052
9.45E10                   -1.8994941409619626
9.46E10                   -1.9102601346594297
9.47E10                   -1.924066510738526
9.48E10                   -1.9405165411397678
9.49E10                   -1.9592341164631395
9.5E10                    -1.9798663023450123
9.51E10                   -2.002083735235614
9.52E10                   -2.025579448739345
9.53E10                   -2.0500667119984297
9.54E10                   -2.0752764031944744
9.55E10                   -2.1009543527526615
9.56E10                   -2.126858988078033
9.57E10                   -2.1527595070375645
9.58E10                   -2.178434709880497
9.59E10                   -2.203672534706334
9.6E10                    -2.228270273128955
9.61E10                   -2.252035391516698
9.62E10                   -2.274786848581466
9.63E10                   -2.296356780493716
9.64E10                   -2.3165924177829162
9.65E10                   -2.335358101387194
9.66E10                   -2.352537275647479
9.67E10                   -2.368034351324736
9.68E10                   -2.3817763496773705
9.69E10                   -2.393714257560758
9.7E10                    -2.403824042098823
