% Model:              dipolo.mph
% Version:            COMSOL 5.5.0.292
% Date:               May 16 2020, 02:11
% Dimension:          1
% Nodes:              153
% Expressions:        1
% Description:        Global
% x                       Height
9.2E10                    -9.012822773558717
9.21E10                   -9.138145010491984
9.22E10                   -9.31068216316548
9.23E10                   -9.527011647896954
9.24E10                   -9.784234770045156
9.25E10                   -10.080110519371466
9.26E10                   -10.413112150155104
9.27E10                   -10.782420445774735
9.28E10                   -11.187867724359828
9.29E10                   -11.629843086736527
9.3E10                    -12.109163530500506
9.31E10                   -12.626907881699442
9.32E10                   -13.184200637546933
9.33E10                   -13.781919565284879
9.34E10                   -14.420282511706242
9.35E10                   -15.09824384368591
9.36E10                   -15.812600450061687
9.37E10                   -16.556681818289558
9.38E10                   -17.31851376910906
9.39E10                   -18.078489566186825
9.4E10                    -18.807021717842353
9.41E10                   -19.463552317563632
9.42E10                   -19.999435052239033
9.43E10                   -20.367156208775278
9.44E10                   -20.53483661120822
9.45E10                   -20.498696490533767
9.46E10                   -20.28444310940231
9.47E10                   -19.93647103690265
9.48E10                   -19.503027785617977
9.49E10                   -19.025677225491183
9.5E10                    -18.53530636713121
9.51E10                   -18.052578384666937
9.52E10                   -17.590157968302726
9.53E10                   -17.15509552232822
9.54E10                   -16.75075307633008
9.55E10                   -16.378179051036298
9.56E10                   -16.037027547901705
9.57E10                   -15.726150159835342
9.58E10                   -15.443967714650988
9.59E10                   -15.188699378294137
9.6E10                    -14.958501164496765
9.61E10                   -14.751547600171754
9.62E10                   -14.566078007802702
9.63E10                   -14.400420900016632
9.64E10                   -14.253004910251537
9.65E10                   -14.122361485269774
9.66E10                   -14.007122558882852
9.67E10                   -13.906015172453207
9.68E10                   -13.817854228237493
9.69E10                   -13.741534081285888
9.7E10                    -13.676019384725302

9.2E10                    -3.5891364282208604
9.21E10                   -3.42662906839967
9.22E10                   -3.284548546095402
9.23E10                   -3.1584310054095526
9.24E10                   -3.044451036130142
9.25E10                   -2.939519931839736
9.26E10                   -2.8413004597945477
9.27E10                   -2.7481622883429284
9.28E10                   -2.6590998406428943
9.29E10                   -2.5736298426953015
9.3E10                    -2.4916811680233915
9.31E10                   -2.4134856959398805
9.32E10                   -2.339476038755212
9.33E10                   -2.2701940219043406
9.34E10                   -2.206212446581667
9.35E10                   -2.148071656425095
9.36E10                   -2.0962315701673155
9.37E10                   -2.051039027979206
9.38E10                   -2.0127095143775957
9.39E10                   -1.9813216096636324
9.4E10                    -1.9568219561107167
9.41E10                   -1.9390381696905892
9.42E10                   -1.9276970185129125
9.43E10                   -1.9224453209327623
9.44E10                   -1.9228713480748398
9.45E10                   -1.9285249813517593
9.46E10                   -1.9389354009836697
9.47E10                   -1.9536255983484079
9.48E10                   -1.972123461098756
9.49E10                   -1.993969543475331
9.5E10                    -2.0187218926052233
9.51E10                   -2.0459584577502063
9.52E10                   -2.0752776766963232
9.53E10                   -2.1062978303633875
9.54E10                   -2.1386557032697335
9.55E10                   -2.1720050024842505
9.56E10                   -2.206014887122811
9.57E10                   -2.240368856903834
9.58E10                   -2.2747641509355736
9.59E10                   -2.308911722794765
9.6E10                    -2.342536788450736
9.61E10                   -2.37537989090307
9.62E10                   -2.4071983891504
9.63E10                   -2.437768257731537
9.64E10                   -2.4668860743441403
9.65E10                   -2.494371074340661
9.66E10                   -2.520067159583803
9.67E10                   -2.543844762765663
9.68E10                   -2.565602484691035
9.69E10                   -2.585268439502895
9.7E10                    -2.602801260079535

9.2E10                    -6.908878099810803
9.21E10                   -7.2643188342530465
9.22E10                   -7.563145044884334
9.23E10                   -7.81800096253027
9.24E10                   -8.045168471206042
9.25E10                   -8.261743985421377
9.26E10                   -8.483722401892697
9.27E10                   -8.725076604281432
9.28E10                   -8.997586280607818
9.29E10                   -9.31109988300731
9.3E10                    -9.673984464954325
9.31E10                   -10.093619862346513
9.32E10                   -10.576874687439336
9.33E10                   -11.130551513141603
9.34E10                   -11.761813193431133
9.35E10                   -12.478608248573728
9.36E10                   -13.29010081028339
9.37E10                   -14.207065536780267
9.38E10                   -15.242082098153066
9.39E10                   -16.409019278305557
9.4E10                    -17.72034951990087
9.41E10                   -19.178252462809294
9.42E10                   -20.749070826003084
9.43E10                   -22.30064887560509
9.44E10                   -23.50404989048009
9.45E10                   -23.88290467478336
9.46E10                   -23.271309319166264
9.47E10                   -22.039327513205734
9.48E10                   -20.626527760023837
9.49E10                   -19.26082142033019
9.5E10                    -18.01680072034141
9.51E10                   -16.904636678675928
9.52E10                   -15.913444465614981
9.53E10                   -15.027570832270602
9.54E10                   -14.231994748485485
9.55E10                   -13.513804646041603
9.56E10                   -12.862341778739308
9.57E10                   -12.26893650837698
9.58E10                   -11.726561348938041
9.59E10                   -11.229507141173798
9.6E10                    -10.773110780404254
9.61E10                   -10.353535941470787
9.62E10                   -9.967599949870324
9.63E10                   -9.61263836984679
9.64E10                   -9.286399547699855
9.65E10                   -8.986962608768417
9.66E10                   -8.712673676893562
9.67E10                   -8.462096187058476
9.68E10                   -8.23397206417675
9.69E10                   -8.027191261635384
9.7E10                    -7.840767722252008
