% Model:              quadripolo.mph
% Version:            COMSOL 5.5.0.292
% Date:               Mar 2 2020, 16:01
% Dimension:          1
% Nodes:              153
% Expressions:        1
% Description:        Global
% x                       Height
9.2E10                    -8.498914620156476
9.21E10                   -8.8810290324197
9.22E10                   -9.20861270234744
9.23E10                   -9.492178931550448
9.24E10                   -9.746347165581698
9.25E10                   -9.987520182037702
9.26E10                   -10.232005280749728
9.27E10                   -10.494857909788895
9.28E10                   -10.789405774459537
9.29E10                   -11.127259903223976
9.3E10                    -11.518608619665665
9.31E10                   -11.972646946835496
9.32E10                   -12.49806238237669
9.33E10                   -13.10355455065732
9.34E10                   -13.798408381759739
9.35E10                   -14.593175109866646
9.36E10                   -15.50055306785844
9.37E10                   -16.53661421334587
9.38E10                   -17.72260987325088
9.39E10                   -19.087729370079916
9.4E10                    -20.67336241882956
9.41E10                   -22.53933342277065
9.42E10                   -24.770088518493854
9.43E10                   -27.459522575874175
9.44E10                   -30.524423925622493
9.45E10                   -32.743043663696135
9.46E10                   -31.843367810686093
9.47E10                   -29.27704893432988
9.48E10                   -26.883158148882593
9.49E10                   -24.936601229314096
9.5E10                    -23.352804668646677
9.51E10                   -22.03317152624055
9.52E10                   -20.904940258035136
9.53E10                   -19.917481504445714
9.54E10                   -19.03564474191356
9.55E10                   -18.234897010752615
9.56E10                   -17.498087819943322
9.57E10                   -16.813274154565853
9.58E10                   -16.17220766021369
9.59E10                   -15.569248458188023
9.6E10                    -15.000570449185043
9.61E10                   -14.463577853832508
9.62E10                   -13.956481116431371
9.63E10                   -13.47799493213337
9.64E10                   -13.027129390947378
9.65E10                   -12.603050790971738
9.66E10                   -12.204993164383612
9.67E10                   -11.83220550721054
9.68E10                   -11.483923182106778
9.69E10                   -11.159354925710856
9.7E10                    -10.857679308188093

9.2E10                    -8.584919939127279
9.21E10                   -8.784919939127279
9.22E10                   -8.984919939127279
9.23E10                   -9.174323254235933
9.24E10                   -9.401412010688366
9.25E10                   -9.664500984504595
9.26E10                   -9.962606211301882
9.27E10                   -10.29549892132323
9.28E10                   -10.663720269486845
9.29E10                   -11.068568216457278
9.3E10                    -11.512065464920042
9.31E10                   -11.996913611198114
9.32E10                   -12.526433552328609
9.33E10                   -13.104484610332726
9.34E10                   -13.735342240944297
9.35E10                   -14.423491544678075
9.36E10                   -15.17325162554711
9.37E10                   -15.98806697808826
9.38E10                   -16.869157890614346
9.39E10                   -17.812975439627657
9.4E10                    -18.806557306770365
9.41E10                   -19.819666789346524
9.42E10                   -20.793616950297285
9.43E10                   -21.631803975715535
9.44E10                   -22.208305107651878
9.45E10                   -22.41462836549109
9.46E10                   -22.2264046978639
9.47E10                   -21.720935068630606
9.48E10                   -21.023355391449723
9.49E10                   -20.24495753821118
9.5E10                    -19.459401990934623
9.51E10                   -18.707060702940897
9.52E10                   -18.00662653627984
9.53E10                   -17.364582219620413
9.54E10                   -16.781115916996193
9.55E10                   -16.253427557299595
9.56E10                   -15.777474657047641
9.57E10                   -15.348858169217879
9.58E10                   -14.963251810982872
9.59E10                   -14.616594154292912
9.6E10                    -14.305159884260185
9.61E10                   -14.025571394243698
9.62E10                   -13.774782628258253
9.63E10                   -13.550051621066043
9.64E10                   -13.348910008326005
9.65E10                   -13.169133454880031
9.66E10                   -13.008714677180702
9.67E10                   -12.865839563867693
9.68E10                   -12.738866318610063
9.69E10                   -12.62630728762564
9.7E10                    -12.526813041658043

9.2E10                    -3.1738610788943324
9.21E10                   -3.0660328849498644
9.22E10                   -2.970352090022041
9.23E10                   -2.883641995019002
9.24E10                   -2.8033140972879833
9.25E10                   -2.727376611586951
9.26E10                   -2.654408047035368
9.27E10                   -2.5835066729839435
9.28E10                   -2.5142245679126978
9.29E10                   -2.446492804973145
9.3E10                    -2.380542609301512
9.31E10                   -2.316826149202063
9.32E10                   -2.255939931724416
9.33E10                   -2.1985534033332046
9.34E10                   -2.145345119744215
9.35E10                   -2.096948576017822
9.36E10                   -2.053909361290449
9.37E10                   -2.0166546763808193
9.38E10                   -1.9854754564033341
9.39E10                   -1.9605204656427453
9.4E10                    -1.9418009031641867
9.41E10                   -1.9292033989036006
9.42E10                   -1.9225088824147998
9.43E10                   -1.9214147087095188
9.44E10                   -1.9255576102105179
9.45E10                   -1.9345354482942865
9.46E10                   -1.9479262747897712
9.47E10                   -1.9653037922343528
9.48E10                   -1.986248844459793
9.49E10                   -2.010357022340003
9.5E10                    -2.0372428050875584
9.51E10                   -2.0665408695523095
9.52E10                   -2.097905299131504
9.53E10                   -2.1310074304369637
9.54E10                   -2.1655330140162428
9.55E10                   -2.2011792592751527
9.56E10                   -2.237652204586712
9.57E10                   -2.2746647186805724
9.58E10                   -2.311935311682569
9.59E10                   -2.3491878223301628
9.6E10                    -2.3861519569619354
9.61E10                   -2.4225645878458417
9.62E10                   -2.458171672897144
9.63E10                   -2.4927306337372053
9.64E10                   -2.5260130211751464
9.65E10                   -2.5578073028347657
9.66E10                   -2.5879216229471496
9.67E10                   -2.61618640574155
9.68E10                   -2.6424566982782114
9.69E10                   -2.666614173534772
9.7E10                    -2.68856873826028