% Model:              quadripolo.mph
% Version:            COMSOL 5.5.0.292
% Date:               Mar 2 2020, 16:01
% Dimension:          1
% Nodes:              153
% Expressions:        1
% Description:        Global
% x                       Height
9.2E10                    -8.584919939127279
9.21E10                   -8.784919939127279
9.22E10                   -8.984919939127279
9.23E10                   -9.174323254235933
9.24E10                   -9.401412010688366
9.25E10                   -9.664500984504595
9.26E10                   -9.962606211301882
9.27E10                   -10.29549892132323
9.28E10                   -10.663720269486845
9.29E10                   -11.068568216457278
9.3E10                    -11.512065464920042
9.31E10                   -11.996913611198114
9.32E10                   -12.526433552328609
9.33E10                   -13.104484610332726
9.34E10                   -13.735342240944297
9.35E10                   -14.423491544678075
9.36E10                   -15.17325162554711
9.37E10                   -15.98806697808826
9.38E10                   -16.869157890614346
9.39E10                   -17.812975439627657
9.4E10                    -18.806557306770365
9.41E10                   -19.819666789346524
9.42E10                   -20.793616950297285
9.43E10                   -21.631803975715535
9.44E10                   -22.208305107651878
9.45E10                   -22.41462836549109
9.46E10                   -22.2264046978639
9.47E10                   -21.720935068630606
9.48E10                   -21.023355391449723
9.49E10                   -20.24495753821118
9.5E10                    -19.459401990934623
9.51E10                   -18.707060702940897
9.52E10                   -18.00662653627984
9.53E10                   -17.364582219620413
9.54E10                   -16.781115916996193
9.55E10                   -16.253427557299595
9.56E10                   -15.777474657047641
9.57E10                   -15.348858169217879
9.58E10                   -14.963251810982872
9.59E10                   -14.616594154292912
9.6E10                    -14.305159884260185
9.61E10                   -14.025571394243698
9.62E10                   -13.774782628258253
9.63E10                   -13.550051621066043
9.64E10                   -13.348910008326005
9.65E10                   -13.169133454880031
9.66E10                   -13.008714677180702
9.67E10                   -12.865839563867693
9.68E10                   -12.738866318610063
9.69E10                   -12.62630728762564
9.7E10                    -12.526813041658043

9.2E10                    -3.497575307972332
9.21E10                   -3.3698618604212554
9.22E10                   -3.2531029071138344
9.23E10                   -3.144429312901693
9.24E10                   -3.0415519599922463
9.25E10                   -2.9427689652412887
9.26E10                   -2.846937476996593
9.27E10                   -2.753421014907263
9.28E10                   -2.662021184614254
9.29E10                   -2.57290046236941
9.3E10                    -2.486501024600674
9.31E10                   -2.403463416772889
9.32E10                   -2.3245481503255307
9.33E10                   -2.250562926694275
9.34E10                   -2.182297925967032
9.35E10                   -2.1204712966153587
9.36E10                   -2.0656865265452544
9.37E10                   -2.0184027207670483
9.38E10                   -1.978917988738279
9.39E10                   -1.9473652476602115
9.4E10                    -1.923718902775291
9.41E10                   -1.9078101965466314
9.42E10                   -1.8993486166805722
9.43E10                   -1.897946656475621
9.44E10                   -1.9031454116184547
9.45E10                   -1.9144389117475518
9.46E10                   -1.9312956342292447
9.47E10                   -1.9531762395841343
9.48E10                   -1.9795471245777099
9.49E10                   -2.009889855447534
9.5E10                    -2.0437068912229006
9.51E10                   -2.080524229406645
9.52E10                   -2.119891713774918
9.53E10                   -2.1613817569844973
9.54E10                   -2.204587173349654
9.55E10                   -2.249118713861832
9.56E10                   -2.294602767771664
9.57E10                   -2.3406795604141446
9.58E10                   -2.3870020485488004
9.59E10                   -2.433235601317441
9.6E10                    -2.479058462176651
9.61E10                   -2.5241629170772932
9.62E10                   -2.5682570464317593
9.63E10                   -2.6110669111018248
9.64E10                   -2.652339012608582
9.65E10                   -2.6918428713737113
9.66E10                   -2.7293735802150323
9.67E10                   -2.764754210018057
9.68E10                   -2.7978379673796905
9.69E10                   -2.828510027620385
9.7E10                    -2.85668898906021

9.2E10                    -6.606155303123399
9.21E10                   -6.935139258074965
9.22E10                   -7.235914260620351
9.23E10                   -7.515209483992123
9.24E10                   -7.781928716464716
9.25E10                   -8.046090610494781
9.26E10                   -8.317969614112098
9.27E10                   -8.607531333988051
9.28E10                   -8.924156691193224
9.29E10                   -9.27659752854484
9.3E10                    -9.673096670749906
9.31E10                   -10.121620510721277
9.32E10                   -10.630176989487257
9.33E10                   -11.207218421391374
9.34E10                   -11.86215555569397
9.35E10                   -12.606039913509761
9.36E10                   -13.45251332179377
9.37E10                   -14.419189586165771
9.38E10                   -15.529744282769746
9.39E10                   -16.817172182914703
9.4E10                    -18.32891936356008
9.41E10                   -20.134539624807346
9.42E10                   -22.333188328207466
9.43E10                   -25.029836240682627
9.44E10                   -28.04764456154586
9.45E10                   -29.620892641547286
9.46E10                   -27.77751669784712
9.47E10                   -24.88177852898196
9.48E10                   -22.37791711526437
9.49E10                   -20.353166829771446
9.5E10                    -18.695225739351784
9.51E10                   -17.307055311361875
9.52E10                   -16.120932243119753
9.53E10                   -15.090364760956588
9.54E10                   -14.182833208982062
9.55E10                   -13.375015772107027
9.56E10                   -12.649776381477423
9.57E10                   -11.994244288518537
9.58E10                   -11.398560288360656
9.59E10                   -10.855036787773837
9.6E10                    -10.357581366797035
9.61E10                   -9.901292672544288
9.62E10                   -9.48217192938104
9.63E10                   -9.09691380219612
9.64E10                   -8.742752799348407
9.65E10                   -8.41734918420802
9.66E10                   -8.11870336043198
9.67E10                   -7.845090987750103
9.68E10                   -7.595013307004701
9.69E10                   -7.367158686629408
9.7E10                    -7.160372481994384