% Model:              quadripolo.mph
% Version:            COMSOL 5.5.0.292
% Date:               Mar 2 2020, 16:01
% Dimension:          1
% Nodes:              153
% Expressions:        1
% Description:        Global
% x                       Height
9.2E10                    -4.84278376589411
9.21E10                   -5.203059194918487
9.22E10                   -5.64278376589411
9.23E10                   -6.103059194918487
9.24E10                   -6.570590801575014
9.25E10                   -7.039624678082751
9.26E10                   -7.509689460887612
9.27E10                   -7.983458356451192
9.28E10                   -8.465450372741618
9.29E10                   -8.961291996523858
9.3E10                    -9.477330118744957
9.31E10                   -10.020460670590829
9.32E10                   -10.598092216101131
9.33E10                   -11.21819955261853
9.34E10                   -11.889443496548713
9.35E10                   -12.621342006290826
9.36E10                   -13.42447241964398
9.37E10                   -14.310653154224955
9.38E10                   -15.29296190616041
9.39E10                   -16.38520627869399
9.4E10                    -17.59983766926966
9.41E10                   -18.941708949473547
9.42E10                   -20.391346506314022
9.43E10                   -21.86519976336689
9.44E10                   -23.145815182082465
9.45E10                   -23.858601287111867
9.46E10                   -23.71121887326307
9.47E10                   -22.83327405263831
9.48E10                   -21.611616816847736
9.49E10                   -20.337572051782242
9.5E10                    -19.141919324593616
9.51E10                   -18.064084412893123
9.52E10                   -17.10595741323655
9.53E10                   -16.25671375238481
9.54E10                   -15.502498299066884
9.55E10                   -14.82984804444956
9.56E10                   -14.226714208081477
9.57E10                   -13.682607493888138
9.58E10                   -13.188451182155765
9.59E10                   -12.736362177399547
9.6E10                    -12.319439210007907
9.61E10                   -11.931583203318716
9.62E10                   -11.567354563409008
9.63E10                   -11.221865224730001
9.64E10                   -10.89070151842524
9.65E10                   -10.569874032282126
9.66E10                   -10.255791265467897
9.67E10                   -9.945254501329128
9.68E10                   -9.635471703721269
9.69E10                   -9.324088295199164
9.7E10                    -9.009232364983475
9.2E10                    -6.515950930360577
9.21E10                   -6.259540365122839
9.22E10                   -6.138099005786938
9.23E10                   -6.118517923981725
9.24E10                   -6.180090875361305
9.25E10                   -6.310130454054382
9.26E10                   -6.50121227048061
9.27E10                   -6.7494501487481795
9.28E10                   -7.053416899298119
9.29E10                   -7.4134716495224895
9.3E10                    -7.831349222516496
9.31E10                   -8.309926185882558
9.32E10                   -8.853114746557059
9.33E10                   -9.46585775545498
9.34E10                   -10.154209632288733
9.35E10                   -10.92548854708215
9.36E10                   -11.788467161481028
9.37E10                   -12.75350937552231
9.38E10                   -13.832395482314663
9.39E10                   -15.037138250537504
9.4E10                    -16.375932325581115
9.41E10                   -17.84143997425234
9.42E10                   -19.380354630795264
9.43E10                   -20.828507007817464
9.44E10                   -21.840660280006706
9.45E10                   -22.01785943914136
9.46E10                   -21.322612876397592
9.47E10                   -20.12638546159718
9.48E10                   -18.79521521528772
9.49E10                   -17.513150155056163
9.5E10                    -16.341859265779423
9.51E10                   -15.290591712701175
9.52E10                   -14.350630755524664
9.53E10                   -13.508803084972623
9.54E10                   -12.752214537963962
9.55E10                   -12.069663159191581
9.56E10                   -11.45185840807417
9.57E10                   -10.891247683798086
9.58E10                   -10.381745963282064
9.59E10                   -9.918473088629248
9.6E10                    -9.497530953363858
9.61E10                   -9.115826034693155
9.62E10                   -8.770933447806673
9.63E10                   -8.460996135481346
9.64E10                   -8.184652692442986
9.65E10                   -7.940987957907562
9.66E10                   -7.729501195981551
9.67E10                   -7.550087115210359
9.68E10                   -7.403024985430844
9.69E10                   -7.288970554306163
9.7E10                    -7.208944200086655
9.2E10                    -6.901655493762902
9.21E10                   -6.275805406907563
9.22E10                   -5.711028394358947
9.23E10                   -5.213262890698298
9.24E10                   -4.775868495411893
9.25E10                   -4.389552835386154
9.26E10                   -4.045793582554188
9.27E10                   -3.7377298179262644
9.28E10                   -3.460161606744025
9.29E10                   -3.2092828622507286
9.3E10                    -2.982371548565841
9.31E10                   -2.7775093895354015
9.32E10                   -2.593348297510678
9.33E10                   -2.428922601764887
9.34E10                   -2.2835014974230767
9.35E10                   -2.1564759589890965
9.36E10                   -2.047275275515382
9.37E10                   -1.9553091831037217
9.38E10                   -1.87993199287442
9.39E10                   -1.8204251869366996
9.4E10                    -1.7759948509711456
9.41E10                   -1.7457802119788954
9.42E10                   -1.7288695921654054
9.43E10                   -1.7243203456240015
9.44E10                   -1.731179815475442
9.45E10                   -1.7485049840774307
9.46E10                   -1.7753792069492311
9.47E10                   -1.8109251357325973
9.48E10                   -1.8543135734067362
9.49E10                   -1.904768516062736
9.5E10                    -1.9615689958580949
9.51E10                   -2.0240485484562774
9.52E10                   -2.091593201684943
9.53E10                   -2.163638847246982
9.54E10                   -2.239668745564132
9.55E10                   -2.3192117564986834
9.56E10                   -2.401841713475304
9.57E10                   -2.487178187447939
9.58E10                   -2.5748887354563275
9.59E10                   -2.6646926043768895
9.6E10                    -2.7563657652078097
9.61E10                   -2.849747081971881
9.62E10                   -2.9447453616263983
9.63E10                   -3.0413469719271373
9.64E10                   -3.139623633077544
9.65E10                   -3.239739861845184
9.66E10                   -3.3419593448681417
9.67E10                   -3.4466492086391503
9.68E10                   -3.5542807036252864
9.69E10                   -3.6654242015211453
9.7E10                    -3.78073561089601