% Model:              dipolo.mph
% Version:            COMSOL 5.5.0.292
% Date:               May 14 2020, 14:13
% Dimension:          1
% Nodes:              153
% Expressions:        1
% Description:        Global
% x                       Height
9.2E10                    -9.012822773558717
9.21E10                   -9.138145010491984
9.22E10                   -9.31068216316548
9.23E10                   -9.527011647896954
9.24E10                   -9.784234770045156
9.25E10                   -10.080110519371466
9.26E10                   -10.413112150155104
9.27E10                   -10.782420445774735
9.28E10                   -11.187867724359828
9.29E10                   -11.629843086736527
9.3E10                    -12.109163530500506
9.31E10                   -12.626907881699442
9.32E10                   -13.184200637546933
9.33E10                   -13.781919565284879
9.34E10                   -14.420282511706242
9.35E10                   -15.09824384368591
9.36E10                   -15.812600450061687
9.37E10                   -16.556681818289558
9.38E10                   -17.31851376910906
9.39E10                   -18.078489566186825
9.4E10                    -18.807021717842353
9.41E10                   -19.463552317563632
9.42E10                   -19.999435052239033
9.43E10                   -20.367156208775278
9.44E10                   -20.53483661120822
9.45E10                   -20.498696490533767
9.46E10                   -20.28444310940231
9.47E10                   -19.93647103690265
9.48E10                   -19.503027785617977
9.49E10                   -19.025677225491183
9.5E10                    -18.53530636713121
9.51E10                   -18.052578384666937
9.52E10                   -17.590157968302726
9.53E10                   -17.15509552232822
9.54E10                   -16.75075307633008
9.55E10                   -16.378179051036298
9.56E10                   -16.037027547901705
9.57E10                   -15.726150159835342
9.58E10                   -15.443967714650988
9.59E10                   -15.188699378294137
9.6E10                    -14.958501164496765
9.61E10                   -14.751547600171754
9.62E10                   -14.566078007802702
9.63E10                   -14.400420900016632
9.64E10                   -14.253004910251537
9.65E10                   -14.122361485269774
9.66E10                   -14.007122558882852
9.67E10                   -13.906015172453207
9.68E10                   -13.817854228237493
9.69E10                   -13.741534081285888
9.7E10                    -13.676019384725302

9.2E10                    -3.4226571059957838
9.21E10                   -3.263351414460644
9.22E10                   -3.122603567634275
9.23E10                   -2.996863939903502
9.24E10                   -2.8831280607245056
9.25E10                   -2.7789922795818587
9.26E10                   -2.6826488879081345
9.27E10                   -2.5928385663863276
9.28E10                   -2.5087761742174335
9.29E10                   -2.4300628073208443
9.3E10                    -2.356593866435171
9.31E10                   -2.2884701347592933
9.32E10                   -2.2259167026954905
9.33E10                   -2.1692129175112376
9.34E10                   -2.1186352327948548
9.35E10                   -2.074413756519193
9.36E10                   -2.036702369808116
9.37E10                   -2.0055614897995966
9.38E10                   -1.9809518985258894
9.39E10                   -1.9627375912823475
9.4E10                    -1.95069534198433
9.41E10                   -1.9445286469567358
9.42E10                   -1.943883872236958
9.43E10                   -1.9483667486519711
9.44E10                   -1.9575577752995998
9.45E10                   -1.971025544780002
9.46E10                   -1.9883374392763447
9.47E10                   -2.0090675259218655
9.48E10                   -2.0328017794346103
9.49E10                   -2.0591409712596827
9.5E10                    -2.0877016906449923
9.51E10                   -2.1181160151955654
9.52E10                   -2.150030341593962
9.53E10                   -2.183103837630206
9.54E10                   -2.217006899900598
9.55E10                   -2.251419910950733
9.56E10                   -2.286032496115709
9.57E10                   -2.320543392018131
9.58E10                   -2.3546609612131983
9.59E10                   -2.3881043241458304
9.6E10                    -2.420605031781586
9.61E10                   -2.4519091698605475
9.62E10                   -2.48177976739829
9.63E10                   -2.5099993758038197
9.64E10                   -2.5363726883350983
9.65E10                   -2.5607290800437097
9.66E10                   -2.5829249634364615
9.67E10                   -2.6028458727095733
9.68E10                   -2.6204082078658764
9.69E10                   -2.6355605880580963
9.7E10                    -2.6482847802724585

9.2E10                    -6.3269915505682775
9.21E10                   -6.6269915505682775
9.22E10                   -7.070437091364623
9.23E10                   -7.4815979758344575
9.24E10                   -7.8640688438214665
9.25E10                   -8.225291044706973
9.26E10                   -8.575275973205347
9.27E10                   -8.925304579830389
9.28E10                   -9.286888772170169
9.29E10                   -9.671114417885404
9.3E10                    -10.088352999605043
9.31E10                   -10.548264103450144
9.32E10                   -11.060003123230535
9.33E10                   -11.632572046734651
9.34E10                   -12.27528523063609
9.35E10                   -12.99835645841867
9.36E10                   -13.81364611821544
9.37E10                   -14.735638842926734
9.38E10                   -15.78274817796399
9.39E10                   -16.979033456405197
9.4E10                    -18.356216611370158
9.41E10                   -19.954871800262243
9.42E10                   -22.019114654876405
9.43E10                   -24.45946069775812
9.44E10                   -26.65619447089191
9.45E10                   -27.768675825107446
9.46E10                   -26.65619447089191
9.47E10                   -25.069002182131428
9.48E10                   -23.27333097378525
9.49E10                   -21.395849139542236
9.5E10                    -19.78910284298708
9.51E10                   -18.414925838856725
9.52E10                   -17.227434703496737
9.53E10                   -16.188848477738382
9.54E10                   -15.270346745974393
9.55E10                   -14.450255716757603
9.56E10                   -13.712203264976615
9.57E10                   -13.043690143045616
9.58E10                   -12.435053780702063
9.59E10                   -11.878727509626428
9.6E10                    -11.368709481746638
9.61E10                   -10.900178591450711
9.62E10                   -10.469213877907293
9.63E10                   -10.072587509208217
9.64E10                   -9.70761069539355
9.65E10                   -9.37201808929951
9.66E10                   -9.063880432663362
9.67E10                   -8.781538080716402
9.68E10                   -8.523550041175273
9.69E10                   -8.288654582554285
9.7E10                    -8.075738489037018
