% Model:              dipolo.mph
% Version:            COMSOL 5.5.0.292
% Date:               May 14 2020, 14:02
% Dimension:          1
% Nodes:              153
% Expressions:        1
% Description:        Global
% x                       Height
9.2E10                    -6.756962854238456
9.21E10                   -7.326962854238456
9.22E10                   -7.971365734968771
9.23E10                   -8.582020788022525
9.24E10                   -9.153178894475493
9.25E10                   -9.684913192382016
9.26E10                   -10.182886695504752
9.27E10                   -10.657225966032529
9.28E10                   -11.120928104250023
9.29E10                   -11.588289668608978
9.3E10                    -12.073703020693639
9.31E10                   -12.590952587861102
9.32E10                   -13.152980194284694
9.33E10                   -13.772016366365907
9.34E10                   -14.459974889492134
9.35E10                   -15.229045088011421
9.36E10                   -16.092462706060026
9.37E10                   -17.06547931709668
9.38E10                   -18.166562953873985
9.39E10                   -19.418789955318353
9.4E10                    -20.851007259479477
9.41E10                   -22.496808938297196
9.42E10                   -24.583432635489477
9.43E10                   -26.780790553579237
9.44E10                   -28.72249961463454
9.45E10                   -30.00000000000000
9.46E10                   -28.79473488021994
9.47E10                   -27.23147125613711
9.48E10                   -25.67964403815258
9.49E10                   -23.99314843253847
9.5E10                    -22.53079163752702
9.51E10                   -21.268180613543777
9.52E10                   -20.168727152371332
9.53E10                   -19.20026101188926
9.54E10                   -18.337440020998987
9.55E10                   -17.560919156018418
9.56E10                   -16.85604480492717
9.57E10                   -16.211708798161723
9.58E10                   -15.619454800335514
9.59E10                   -15.072804532423936
9.6E10                    -14.566753820923156
9.61E10                   -14.097395761032935
9.62E10                   -13.66163864044768
9.63E10                   -13.256994798156953
9.64E10                   -12.881422824068077
9.65E10                   -12.533209942265389
9.66E10                   -12.210884612488655
9.67E10                   -11.913151735900575
9.68E10                   -11.638844627689966
9.69E10                   -11.386889287723129
9.7E10                    -11.156277567516941

9.2E10                    -9.012822773558717
9.21E10                   -9.138145010491984
9.22E10                   -9.31068216316548
9.23E10                   -9.527011647896954
9.24E10                   -9.784234770045156
9.25E10                   -10.080110519371466
9.26E10                   -10.413112150155104
9.27E10                   -10.782420445774735
9.28E10                   -11.187867724359828
9.29E10                   -11.629843086736527
9.3E10                    -12.109163530500506
9.31E10                   -12.626907881699442
9.32E10                   -13.184200637546933
9.33E10                   -13.781919565284879
9.34E10                   -14.420282511706242
9.35E10                   -15.09824384368591
9.36E10                   -15.812600450061687
9.37E10                   -16.556681818289558
9.38E10                   -17.31851376910906
9.39E10                   -18.078489566186825
9.4E10                    -18.807021717842353
9.41E10                   -19.463552317563632
9.42E10                   -19.999435052239033
9.43E10                   -20.367156208775278
9.44E10                   -20.53483661120822
9.45E10                   -20.498696490533767
9.46E10                   -20.28444310940231
9.47E10                   -19.93647103690265
9.48E10                   -19.503027785617977
9.49E10                   -19.025677225491183
9.5E10                    -18.53530636713121
9.51E10                   -18.052578384666937
9.52E10                   -17.590157968302726
9.53E10                   -17.15509552232822
9.54E10                   -16.75075307633008
9.55E10                   -16.378179051036298
9.56E10                   -16.037027547901705
9.57E10                   -15.726150159835342
9.58E10                   -15.443967714650988
9.59E10                   -15.188699378294137
9.6E10                    -14.958501164496765
9.61E10                   -14.751547600171754
9.62E10                   -14.566078007802702
9.63E10                   -14.400420900016632
9.64E10                   -14.253004910251537
9.65E10                   -14.122361485269774
9.66E10                   -14.007122558882852
9.67E10                   -13.906015172453207
9.68E10                   -13.817854228237493
9.69E10                   -13.741534081285888
9.7E10                    -13.676019384725302

9.2E10                    -3.2687483806400035
9.21E10                   -3.0927991664464436
9.22E10                   -2.9414469955212734
9.23E10                   -2.810300156126369
9.24E10                   -2.695578323548572
9.25E10                   -2.5941620918515893
9.26E10                   -2.5035838243241466
9.27E10                   -2.4219772134660116
9.28E10                   -2.348001161947437
9.29E10                   -2.280750569301567
9.3E10                    -2.219663480230292
9.31E10                   -2.1644313624861944
9.32E10                   -2.114917170770123
9.33E10                   -2.0710842410577697
9.34E10                   -2.0329378011436696
9.35E10                   -2.00047984722769
9.36E10                   -1.9736772446572128
9.37E10                   -1.9524421414223418
9.38E10                   -1.9366231544410435
9.39E10                   -1.9260053367320664
9.4E10                    -1.9203166879365574
9.41E10                   -1.919238939275595
9.42E10                   -1.9224205074863137
9.43E10                   -1.929489827332038
9.44E10                   -1.940067681589932
9.45E10                   -1.9537775911283433
9.46E10                   -1.9702537533854672
9.47E10                   -1.9891463865937264
9.48E10                   -2.0101246266925865
9.49E10                   -2.0328773260190593
9.5E10                    -2.0571122210773445
9.51E10                   -2.082553982132764
9.52E10                   -2.1089416452067216
9.53E10                   -2.1360258735026063
9.54E10                   -2.1635664157337824
9.55E10                   -2.1913300365288584
9.56E10                   -2.219089099781136
9.57E10                   -2.24662089746267
9.58E10                   -2.2737077394950393
9.59E10                   -2.300137757913662
9.6E10                    -2.3257063320471407
9.61E10                   -2.350218010498232
9.62E10                   -2.373488788988587
9.63E10                   -2.395348598507993
9.64E10                   -2.415643863195723
9.65E10                   -2.4342399993921022
9.66E10                   -2.451023743893736
9.67E10                   -2.4659052185033583
9.68E10                   -2.4788196577572745
9.69E10                   -2.4897287459921134
9.7E10                    -2.4986215278323884
