% Model:              quadripolo.mph
% Version:            COMSOL 5.5.0.292
% Date:               Apr 28 2020, 07:54
% Dimension:          1
% Nodes:              153
% Expressions:        1
% Description:        Global
% x                       Height
9.2E10                    -4.330824980371587
9.21E10                   -4.836575171539151
9.22E10                   -5.2880513155571744
9.23E10                   -5.693681911398497
9.24E10                   -6.067259565058958
9.25E10                   -6.4234312582072794
9.26E10                   -6.775804004207605
9.27E10                   -7.136379994079273
9.28E10                   -7.515594958835992
9.29E10                   -7.922588864023048
9.3E10                    -8.365536719377495
9.31E10                   -8.85197001805421
9.32E10                   -9.389068890975802
9.33E10                   -9.983926451643402
9.34E10                   -10.643792477554953
9.35E10                   -11.376297233356263
9.36E10                   -12.189633329979525
9.37E10                   -13.092616554693384
9.38E10                   -14.094410292924556
9.39E10                   -15.203371508917341
9.4E10                    -16.42369826888657
9.41E10                   -17.74679310292942
9.42E10                   -19.130933919479055
9.43E10                   -20.46077558647987
9.44E10                   -21.498766034698356
9.45E10                   -21.92650613445775
9.46E10                   -21.58870481155986
9.47E10                   -20.6659239608992
9.48E10                   -19.472336107303214
9.49E10                   -18.228620370501233
9.5E10                    -17.037114806428686
9.51E10                   -15.932128097868244
9.52E10                   -14.918316493811439
9.53E10                   -13.98948810338743
9.54E10                   -13.136508165710495
9.55E10                   -12.350332615890949
9.56E10                   -11.623022832267218
9.57E10                   -10.947960849580305
9.58E10                   -10.319770688749369
9.59E10                   -9.73415247010413
9.6E10                    -9.187711298365894
9.61E10                   -8.67781072865823
9.62E10                   -8.202458862978835
9.63E10                   -7.760226264228595
9.64E10                   -7.350191459306698
9.65E10                   -6.971908569678918
9.66E10                   -6.625391070955789
9.67E10                   -6.311105136107395
9.68E10                   -6.029965125363612
9.69E10                   -5.783322439112965
9.7E10                    -5.572937243512604
9.2E10                    -6.553422216784829
9.21E10                   -5.643202689072153
9.22E10                   -4.997027108041198
9.23E10                   -4.5132309628934
9.24E10                   -4.133642340687137
9.25E10                   -3.8235013132411617
9.26E10                   -3.5613361471142317
9.27E10                   -3.3335700712990524
9.28E10                   -3.131504919948867
9.29E10                   -2.949557347480986
9.3E10                    -2.7841830326337784
9.31E10                   -2.6331930032435134
9.32E10                   -2.4953013775738646
9.33E10                   -2.369814704767113
9.34E10                   -2.2564116554735945
9.35E10                   -2.154983423412901
9.36E10                   -2.06551751043032
9.37E10                   -1.9880145527677389
9.38E10                   -1.922431666444645
9.39E10                   -1.8686477041335616
9.4E10                    -1.8264466214189055
9.41E10                   -1.7955153865911686
9.42E10                   -1.7754529065562785
9.43E10                   -1.7657865205611147
9.44E10                   -1.7659928575477033
9.45E10                   -1.7755202920759081
9.46E10                   -1.7938108302949518
9.47E10                   -1.8203199367095246
9.48E10                   -1.8545334910989602
9.49E10                   -1.8959816721437632
9.5E10                    -1.944250053438117
9.51E10                   -1.9989885489403205
9.52E10                   -2.0599190620372823
9.53E10                   -2.126842795201701
9.54E10                   -2.1996481944888173
9.55E10                   -2.278320466043689
9.56E10                   -2.3629535392189425
9.57E10                   -2.453765286330144
9.58E10                   -2.5511167590115704
9.59E10                   -2.655536174367121
9.6E10                    -2.7677483813452284
9.61E10                   -2.8887105513114792
9.62E10                   -3.0196548500570115
9.63E10                   -3.1621388354044706
9.64E10                   -3.3181042494315918
9.65E10                   -3.489944693424232
9.66E10                   -3.6805823412424217
9.67E10                   -3.8935533299966467
9.68E10                   -4.133100776337516
9.69E10                   -4.404273611536673
9.7E10                    -4.713028905554259
9.2E10                    -5.76082498037159
9.21E10                   -6.26657517153915
9.22E10                   -6.71805131555717
9.23E10                   -7.12368191139850
9.24E10                   -7.49725956505896
9.25E10                   -7.85343125820728
9.26E10                   -8.20580400420761
9.27E10                   -8.56637999407927
9.28E10                   -8.94559495883599
9.29E10                   -9.35258886402305
9.3E10                    -9.79553671937750
9.31E10                   -10.2819700180542
9.32E10                   -10.8190688909758
9.33E10                   -11.4139264516434
9.34E10                   -12.0737924775550
9.35E10                   -12.8062972333563
9.36E10                   -13.6196333299795
9.37E10                   -14.5226165546934
9.38E10                   -15.5244102929246
9.39E10                   -16.6333715089173
9.4E10                    -17.8536982688866
9.41E10                   -19.1767931029294
9.42E10                   -20.5609339194791
9.43E10                   -21.8907755864799
9.44E10                   -22.9287660346984
9.45E10                   -23.3565061344578
9.46E10                   -23.0187048115599
9.47E10                   -22.0959239608992
9.48E10                   -20.9023361073032
9.49E10                   -19.6586203705012
9.5E10                    -18.4671148064287
9.51E10                   -17.3621280978682
9.52E10                   -16.3483164938114
9.53E10                   -15.4194881033874
9.54E10                   -14.5665081657105
9.55E10                   -13.7803326158909
9.56E10                   -13.0530228322672
9.57E10                   -12.3779608495803
9.58E10                   -11.7497706887494
9.59E10                   -11.1641524701041
9.6E10                    -10.6177112983659
9.61E10                   -10.1078107286582
9.62E10                   -9.63245886297884
9.63E10                   -9.19022626422860
9.64E10                   -8.78019145930670
9.65E10                   -8.40190856967892
9.66E10                   -8.05539107095579
9.67E10                   -7.74110513610740
9.68E10                   -7.45996512536361
9.69E10                   -7.21332243911296
9.7E10                    -7.00293724351260