% Model:              quadripolo.mph
% Version:            COMSOL 5.5.0.292
% Date:               Apr 28 2020, 08:05
% Dimension:          1
% Nodes:              153
% Expressions:        1
% Description:        Global
% x                       Height
9.2E10                    -6.552458938139996
9.21E10                   -5.6422704348518256
9.22E10                   -4.99610885949123
9.23E10                   -4.51231284313278
9.24E10                   -4.1327120612513175
9.25E10                   -3.8225476845066932
9.26E10                   -3.5603489274347777
9.27E10                   -3.332539940741931
9.28E10                   -3.130423504662207
9.29E10                   -2.948417264967547
9.3E10                    -2.7829779437571824
9.31E10                   -2.6319176627847285
9.32E10                   -2.4939516777464443
9.33E10                   -2.368387707448138
9.34E10                   -2.2549056098335143
9.35E10                   -2.1533977664605373
9.36E10                   -2.063852848832717
9.37E10                   -1.9862726251878065
9.38E10                   -1.9206152865397321
9.39E10                   -1.8667606852309502
9.4E10                    -1.8244936846793416
9.41E10                   -1.7935020551410692
9.42E10                   -1.7733853885717017
9.43E10                   -1.7636715846021271
9.44E10                   -1.7638377035535138
9.45E10                   -1.773332421353503
9.46E10                   -1.7915979175869168
9.47E10                   -1.8180897070380877
9.48E10                   -1.8522936036022164
9.49E10                   -1.8937396125722803
9.5E10                    -1.9420130364216321
9.51E10                   -1.9967634305822717
9.52E10                   -2.0577122628856324
9.53E10                   -2.1246602331917144
9.54E10                   -2.1974952270658084
9.55E10                   -2.2762018403554753
9.56E10                   -2.360873349011257
9.57E10                   -2.4517269339767807
9.58E10                   -2.549122920947369
9.59E10                   -2.6535887680543317
9.6E10                    -2.7658485317674852
9.61E10                   -2.8868585548397703
9.62E10                   -3.017850133339847
9.63E10                   -3.1603799066764067
9.64E10                   -3.316388639278338
9.65E10                   -3.488268881546766
9.66E10                   -3.6789416650843676
9.67E10                   -3.8919418701706627
9.68E10                   -4.131511212533048
9.69E10                   -4.402697040920123
9.7E10                    -4.711454613478287
9.2E10                    -4.523175364444401
9.21E10                   -5.557389663606626
9.22E10                   -6.599227962359308
9.23E10                   -7.603382575245634
9.24E10                   -8.547319548816878
9.25E10                   -9.422213639892478
9.26E10                   -10.227416032377343
9.27E10                   -10.967355533531574
9.28E10                   -11.6497763228844
9.29E10                   -12.284626583056424
9.3E10                    -12.883250576794074
9.31E10                   -13.457739923335758
9.32E10                   -14.020397624971393
9.33E10                   -14.583298847921162
9.34E10                   -15.157925339248248
9.35E10                   -15.754823500942
9.36E10                   -16.383194688438806
9.37E10                   -17.050263565354545
9.38E10                   -17.760170327886758
9.39E10                   -18.51197898619925
9.4E10                    -19.29620668986398
9.41E10                   -20.089240310555923
9.42E10                   -20.845777075891977
9.43E10                   -21.492498908053214
9.44E10                   -21.932528302481558
9.45E10                   -22.073354824309366
9.46E10                   -21.87309342013123
9.47E10                   -21.366762473900348
9.48E10                   -20.643497653943705
9.49E10                   -19.80026891434898
9.5E10                    -18.912026942898947
9.51E10                   -18.02594355796662
9.52E10                   -17.167455927886945
9.53E10                   -16.348028546778522
9.54E10                   -15.571033318209889
9.55E10                   -14.835472747256004
9.56E10                   -14.138153701209237
9.57E10                   -13.47490676646087
9.58E10                   -12.841256559565279
9.59E10                   -12.232787311416892
9.6E10                    -11.64534357552493
9.61E10                   -11.075144268999601
9.62E10                   -10.518853212270267
9.63E10                   -9.973629618866847
9.64E10                   -9.437170815679263
9.65E10                   -8.907752974248849
9.66E10                   -8.3842716259638
9.67E10                   -7.866280984124641
9.68E10                   -7.354028896218844
9.69E10                   -6.8484822117560356
9.7E10                    -6.351335329423441
9.2E10                    -5.378805185993528
9.21E10                   -5.02775741023799
9.22E10                   -4.848396944000265
9.23E10                   -4.787078440286418
9.24E10                   -4.813395541894238
9.25E10                   -4.910018411680162
9.26E10                   -5.067278921600792
9.27E10                   -5.280207220512793
9.28E10                   -5.54686825340794
9.29E10                   -5.867410589425843
9.3E10                    -6.243521929350217
9.31E10                   -6.678130151975553
9.32E10                   -7.17526514328447
9.33E10                   -7.740038384055476
9.34E10                   -8.378720160427308
9.35E10                   -9.098904464069706
9.36E10                   -9.909747616681674
9.37E10                   -10.822235071533484
9.38E10                   -11.849330764745055
9.39E10                   -13.005579200477062
9.4E10                    -14.304938686747573
9.41E10                   -15.753448385506774
9.42E10                   -17.32777019858719
9.43E10                   -18.92047181872301
9.44E10                   -20.24228896681421
9.45E10                   -20.81876804853996
9.46E10                   -20.39018956999699
9.47E10                   -19.258135104338795
9.48E10                   -17.886685093293984
9.49E10                   -16.541526132423943
9.5E10                    -15.31619031828094
9.51E10                   -14.22760053451935
9.52E10                   -13.26669638580283
9.53E10                   -12.417963642657167
9.54E10                   -11.666044322578395
9.55E10                   -10.997645325881912
9.56E10                   -10.401835268972938
9.57E10                   -9.869837679561288
9.58E10                   -9.394709176783547
9.59E10                   -8.971032258338578
9.6E10                    -8.594659495090418
9.61E10                   -8.262513561162809
9.62E10                   -7.972437190902264
9.63E10                   -7.72308463642596
9.64E10                   -7.513846150364392
9.65E10                   -7.344797386741342
9.66E10                   -7.2166655728365114
9.67E10                   -7.130803468482732
9.68E10                   -7.089160250374226
9.69E10                   -7.094235337197187
9.7E10                    -7.1489966487978505
