% Model:              dipolo.mph
% Version:            COMSOL 5.5.0.292
% Date:               May 16 2020, 21:18
% Dimension:          1
% Nodes:              153
% Expressions:        1
% Description:        Global
% x                       Height
9.2E10                    -8.700502853181089
9.21E10                   -8.842986545109927
9.22E10                   -9.030434981204701
9.23E10                   -9.258548863218666
9.24E10                   -9.524021395868248
9.25E10                   -9.824557247841772
9.26E10                   -10.158814938586627
9.27E10                   -10.526299439428675
9.28E10                   -10.927223973829992
9.29E10                   -11.362351447736343
9.3E10                    -11.832817676328695
9.31E10                   -12.339930374872413
9.32E10                   -12.884928726243025
9.33E10                   -13.468676749045269
9.34E10                   -14.091248119130137
9.35E10                   -14.751339800562276
9.36E10                   -15.445429282945003
9.37E10                   -16.166577049105854
9.38E10                   -16.90280561761906
9.39E10                   -17.635134423851888
9.4E10                    -18.335741724673408
9.41E10                   -18.9674561087796
9.42E10                   -19.48659304358994
9.43E10                   -19.850928444660013
9.44E10                   -20.03175488097864
9.45E10                   -20.024266012020423
9.46E10                   -19.849222297358132
9.47E10                   -19.544645899844216
9.48E10                   -19.153511193088004
9.49E10                   -18.714239413481756
9.5E10                    -18.25644874231781
9.51E10                   -17.80070621258985
9.52E10                   -17.360144043501307
9.53E10                   -16.942466124474127
9.54E10                   -16.55168440647148
9.55E10                   -16.189417326719447
9.56E10                   -15.855790037276911
9.57E10                   -15.55003203825401
9.58E10                   -15.270863274808459
9.59E10                   -15.016738738432384
9.6E10                    -14.78600072249601
9.61E10                   -14.576971653728625
9.62E10                   -14.388009002578412
9.63E10                   -14.217536121091989
9.64E10                   -14.06405785551659
9.65E10                   -13.926166557709621
9.66E10                   -13.802542058673923
9.67E10                   -13.691947856906028
9.68E10                   -13.59322494527978
9.69E10                   -13.505284180304724
9.7E10                    -13.42709777652183

9.2E10                    -3.557102506439882
9.21E10                   -3.413558782696491
9.22E10                   -3.287091406578881
9.23E10                   -3.1731332683870397
9.24E10                   -3.06798500737758
9.25E10                   -2.9688426595027826
9.26E10                   -2.873749168350803
9.27E10                   -2.7814989677711695
9.28E10                   -2.6915181501551455
9.29E10                   -2.6037359525754145
9.3E10                    -2.5184578197013714
9.31E10                   -2.436246456661592
9.32E10                   -2.357814832189881
9.33E10                   -2.2839336040324913
9.34E10                   -2.2153544933882987
9.35E10                   -2.15275041146972
9.36E10                   -2.0966724464585376
9.37E10                   -2.0475230832814804
9.38E10                   -2.00554427708742
9.39E10                   -1.9708183158049508
9.4E10                    -1.9432788838832848
9.41E10                   -1.9227294535011672
9.42E10                   -1.9088661132151623
9.43E10                   -1.9013021804843935
9.44E10                   -1.8995923769228753
9.45E10                   -1.9032548940610883
9.46E10                   -1.9117902600826375
9.47E10                   -1.9246964638975044
9.48E10                   -1.9414802526808947
9.49E10                   -1.9616648667385919
9.5E10                    -1.9847947059480766
9.51E10                   -2.010437544875921
9.52E10                   -2.038184947747597
9.53E10                   -2.0676515021627755
9.54E10                   -2.098473413964585
9.55E10                   -2.1303069045109764
9.56E10                   -2.1628267415003637
9.57E10                   -2.1957251271597023
9.58E10                   -2.2287110709378037
9.59E10                   -2.2615102925389468
9.6E10                    -2.2938656372600112
9.61E10                   -2.3255379392901334
9.62E10                   -2.3563072386086077
9.63E10                   -2.3859742412421743
9.64E10                   -2.4143619082887797
9.65E10                   -2.441317063559782
9.66E10                   -2.4667119203003702
9.67E10                   -2.49044544191678
9.68E10                   -2.512444468031493
9.69E10                   -2.5326645540073685
9.7E10                    -2.5510904882639833

9.2E10                    -6.896121913651858
9.21E10                   -7.2557895825034615
9.22E10                   -7.55980356908998
9.23E10                   -7.820199292375928
9.24E10                   -8.052758297979457
9.25E10                   -8.274239802255634
9.26E10                   -8.500453683856907
9.27E10                   -8.745296758447067
9.28E10                   -9.020534423027174
9.29E10                   -9.336025623595056
9.3E10                    -9.700148909450716
9.31E10                   -10.120283837350698
9.32E10                   -10.603281851265784
9.33E10                   -11.155911462720354
9.34E10                   -11.78528868774373
9.35E10                   -12.499311902217523
9.36E10                   -13.307111626033867
9.37E10                   -14.219488520555355
9.38E10                   -15.249205263181713
9.39E10                   -16.41069747985539
9.4E10                    -17.717926485286096
9.41E10                   -19.17674940145708
9.42E10                   -20.762084932433883
9.43E10                   -22.358872462803838
9.44E10                   -23.657146424806875
9.45E10                   -24.15946410867832
9.46E10                   -23.626749798889648
9.47E10                   -22.405690800922365
9.48E10                   -20.96988560822428
9.49E10                   -19.574044149522713
9.5E10                    -18.30242550347859
9.51E10                   -17.167195942556198
9.52E10                   -16.15716111774652
9.53E10                   -15.255888749924633
9.54E10                   -14.447620764497493
9.55E10                   -13.718855269342274
9.56E10                   -13.058483931930605
9.57E10                   -12.457499349281619
9.58E10                   -11.908620087431494
9.59E10                   -11.405944760771904
9.6E10                    -10.94466341996707
9.61E10                   -10.520826446535331
9.62E10                   -10.131162886264853
9.63E10                   -9.772938844126974
9.64E10                   -9.443847493688992
9.65E10                   -9.141923718140943
9.66E10                   -8.865477816766349
9.67E10                   -8.61304391431803
9.68E10                   -8.383339683092796
9.69E10                   -8.175234756290436
9.7E10                    -7.987725813601489
