% Model:              dipolo.mph
% Version:            COMSOL 5.5.0.292
% Date:               May 16 2020, 21:07
% Dimension:          1
% Nodes:              153
% Expressions:        1
% Description:        Global
% x                       Height
9.2E10                    -7.679102124364681
9.21E10                   -8.281576184942592
9.22E10                   -8.811523049480519
9.23E10                   -9.26731201645487
9.24E10                   -9.657467039719775
9.25E10                   -9.998037049873425
9.26E10                   -10.308951759401241
9.27E10                   -10.610739059412719
9.28E10                   -10.92236563310534
9.29E10                   -11.260263520519448
9.3E10                    -11.638221485424761
9.31E10                   -12.067757651093576
9.32E10                   -12.558687165117295
9.33E10                   -13.119721496850197
9.34E10                   -13.759025344567078
9.35E10                   -14.484701436406276
9.36E10                   -15.305174125919631
9.37E10                   -16.229390128800905
9.38E10                   -17.266605319086747
9.39E10                   -18.425157439801673
9.4E10                    -19.708735982465452
9.41E10                   -21.106633525019408
9.42E10                   -22.57070970584385
9.43E10                   -23.970208337770824
9.44E10                   -25.043058794447248
9.45E10                   -25.46214352364673
9.46E10                   -25.111273432246954
9.47E10                   -24.21773253244634
9.48E10                   -23.10132785995978
9.49E10                   -21.966513451253856
9.5E10                    -20.901178560649214
9.51E10                   -19.931089737067055
9.52E10                   -19.056196051191343
9.53E10                   -18.267556189484246
9.54E10                   -17.554256895641707
9.55E10                   -16.905995225365068
9.56E10                   -16.31389222626241
9.57E10                   -15.770611570252557
9.58E10                   -15.27022266842633
9.59E10                   -14.807986875355418
9.6E10                    -14.380138057420261
9.61E10                   -13.983684292632411
9.62E10                   -13.616238887885793
9.63E10                   -13.275881169063359
9.64E10                   -12.961044392370518
9.65E10                   -12.670427033474002
9.66E10                   -12.402923520468834
9.67E10                   -12.157570695646957
9.68E10                   -11.933506689896996
9.69E10                   -11.729939357132695
9.7E10                    -11.54612188288375

9.2E10                    -8.697888076851754
9.21E10                   -8.840202556869414
9.22E10                   -9.02748398367419
9.23E10                   -9.255434057792499
9.24E10                   -9.520747330972284
9.25E10                   -9.821130282292952
9.26E10                   -10.155243861571655
9.27E10                   -10.522596304634504
9.28E10                   -10.923405227540595
9.29E10                   -11.35843946150323
9.3E10                    -11.828842836530091
9.31E10                   -12.335933935947041
9.32E10                   -12.880966700391486
9.33E10                   -13.46482517255589
9.34E10                   -14.087610070973351
9.35E10                   -14.748054466941007
9.36E10                   -15.442682966696317
9.37E10                   -16.164614920872104
9.38E10                   -16.901940529001184
9.39E10                   -17.63574450346557
9.4E10                    -18.338242103007712
9.41E10                   -18.972226580316345
9.42E10                   -19.49385525796849
9.43E10                   -19.86060657999699
9.44E10                   -20.04340482562744
9.45E10                   -20.037151145269746
9.46E10                   -19.862512752039123
9.47E10                   -19.557621251840033
9.48E10                   -19.1656671514953
9.49E10                   -18.725291490955694
9.5E10                    -18.266281328192626
9.51E10                   -17.80931224652756
9.52E10                   -17.367576747824064
9.53E10                   -16.948806874681544
9.54E10                   -16.557023687954423
9.55E10                   -16.19384447597735
9.56E10                   -15.85938830512118
9.57E10                   -15.552876661680441
9.58E10                   -15.273021149646624
9.59E10                   -15.018268883200797
9.6E10                    -14.786955087391203
9.61E10                   -14.577396039122597
9.62E10                   -14.387943969420164
9.63E10                   -14.21701783999505
9.64E10                   -14.063118875415677
9.65E10                   -13.924836492240104
9.66E10                   -13.800848196493174
9.67E10                   -13.68991570531185
9.68E10                   -13.590878717023632
9.69E10                   -13.502647232726371
9.7E10                    -13.424193010683215

9.2E10                    -3.3505972572217506
9.21E10                   -3.184177589568683
9.22E10                   -3.0424743702917394
9.23E10                   -2.919931564806149
9.24E10                   -2.8119344790376335
9.25E10                   -2.7148297954717298
9.26E10                   -2.6258718168083055
9.27E10                   -2.5431235917887247
9.28E10                   -2.465334968252751
9.29E10                   -2.39181289383086
9.3E10                    -2.3222938651913094
9.31E10                   -2.2568246341618052
9.32E10                   -2.1956548798241644
9.33E10                   -2.1391441212812774
9.34E10                   -2.0876842539011635
9.35E10                   -2.041638419283484
9.36E10                   -2.0012962715841485
9.37E10                   -1.9668450086017515
9.38E10                   -1.9383548192071296
9.39E10                   -1.9157767401456984
9.4E10                    -1.8989504108563788
9.41E10                   -1.8876189401824341
9.42E10                   -1.8814480864606358
9.43E10                   -1.8800471867814714
9.44E10                   -1.8829896966677995
9.45E10                   -1.8898317399418807
9.46E10                   -1.9001276386876251
9.47E10                   -1.9134419256221236
9.48E10                   -1.9293577875050094
9.49E10                   -1.9474822232993014
9.5E10                    -1.9674484198869702
9.51E10                   -1.9889159613590766
9.52E10                   -2.0115695141538863
9.53E10                   -2.0351165920192145
9.54E10                   -2.0592849239779847
9.55E10                   -2.0838198445218556
9.56E10                   -2.1084820136672717
9.57E10                   -2.1330456667474618
9.58E10                   -2.157297497560673
9.59E10                   -2.1810361982427198
9.6E10                    -2.2040726168512195
9.61E10                   -2.226230449130062
9.62E10                   -2.2473473528429984
9.63E10                   -2.2672763591962823
9.64E10                   -2.285887453510404
9.65E10                   -2.3030692036682288
9.66E10                   -2.31873032730261
9.67E10                   -2.3328011048555366
9.68E10                   -2.345234563601732
9.69E10                   -2.3560073759854108
9.7E10                    -2.3651204331024767
