% Model:              quadripolo.mph
% Version:            COMSOL 5.5.0.292
% Date:               May 1 2020, 09:19
% Dimension:          1
% Nodes:              153
% Expressions:        1
% Description:        Global
% x                       Height
9.2E10                    -5.994919161960691
9.21E10                   -6.333028593810559
9.22E10                   -6.686708366715122
9.23E10                   -7.046831710161792
9.24E10                   -7.4112383636290415
9.25E10                   -7.7813636120266505
9.26E10                   -8.160529975489615
9.27E10                   -8.55309901158477
9.28E10                   -8.96406567806668
9.29E10                   -9.398883237216152
9.3E10                    -9.863412389079413
9.31E10                   -10.363942445105057
9.32E10                   -10.907260169738018
9.33E10                   -11.500755642494154
9.34E10                   -12.152558937445885
9.35E10                   -12.871695950775742
9.36E10                   -13.668228737577927
9.37E10                   -14.553283619565871
9.38E10                   -15.538713906708487
9.39E10                   -16.63575508799436
9.4E10                    -17.85107396352537
9.41E10                   -19.1763825713602
9.42E10                   -20.56355503204304
9.43E10                   -21.875283759075582
9.44E10                   -22.83299750815395
9.45E10                   -23.09737102040106
9.46E10                   -22.572890501775504
9.47E10                   -21.521636240821678
9.48E10                   -20.275309388742148
9.49E10                   -19.03361921466498
9.5E10                    -17.87785340948777
9.51E10                   -16.829353820306988
9.52E10                   -15.885349162351918
9.53E10                   -15.03498257492425
9.54E10                   -14.265672333022737
9.55E10                   -13.565422585805585
9.56E10                   -12.923531451657354
9.57E10                   -12.330693862355087
9.58E10                   -11.778897379236774
9.59E10                   -11.261267353680932
9.6E10                    -10.771920358631071
9.61E10                   -10.30584563193881
9.62E10                   -9.858818729558985
9.63E10                   -9.427345603116892
9.64E10                   -9.00863305604697
9.65E10                   -8.600580529676282
9.66E10                   -8.20178736942667
9.67E10                   -7.8115686818196926
9.68E10                   -7.42997148624744
9.69E10                   -7.057781182127684
9.7E10                    -6.696506712683497
9.2E10                    -5.3416691787445245
9.21E10                   -5.050609209770097
9.22E10                   -4.905768479878182
9.23E10                   -4.864312873223536
9.24E10                   -4.901814421107811
9.25E10                   -5.004305098139073
9.26E10                   -5.164042811554001
9.27E10                   -5.3771830205776725
9.28E10                   -5.642464006452207
9.29E10                   -5.960453053806724
9.3E10                    -6.333118199487383
9.31E10                   -6.763601602808657
9.32E10                   -7.256130037003164
9.33E10                   -7.81603112676088
9.34E10                   -8.44984272848624
9.35E10                   -9.165511628514755
9.36E10                   -9.972674254530736
9.37E10                   -10.882982843007955
9.38E10                   -11.910344045526827
9.39E10                   -13.070653870632697
9.4E10                    -14.379799332931185
9.41E10                   -15.84638469086158
9.42E10                   -17.44946529170903
9.43E10                   -19.079367373911875
9.44E10                   -20.427277504960827
9.45E10                   -20.97856616988796
9.46E10                   -20.46976034833468
9.47E10                   -19.254526620914266
9.48E10                   -17.826194715417554
9.49E10                   -16.447633801241054
9.5E10                    -15.203768927517103
9.51E10                   -14.105614033764368
9.52E10                   -13.140809709451615
9.53E10                   -12.292063208911202
9.54E10                   -11.54304576041338
9.55E10                   -10.879925111336924
9.56E10                   -10.291473166081172
9.57E10                   -9.76876496767357
9.58E10                   -9.304810681507128
9.59E10                   -8.894227029091656
9.6E10                    -8.532973476643628
9.61E10                   -8.218151814696167
9.62E10                   -7.94786025551644
9.63E10                   -7.721092073150865
9.64E10                   -7.537669453088968
9.65E10                   -7.398203879481294
9.66E10                   -7.3040743999264235
9.67E10                   -7.257414163159571
9.68E10                   -7.261093519245852
9.69E10                   -7.318684512425492
9.7E10                    -7.434386560985541
9.2E10                    -6.269625756167888
9.21E10                   -5.9506101773302795
9.22E10                   -5.595337983779705
9.23E10                   -5.240824468153617
9.24E10                   -4.9014938553169305
9.25E10                   -4.581728608380791
9.26E10                   -4.2819143782734
9.27E10                   -4.001111668286042
9.28E10                   -3.738164623502303
9.29E10                   -3.4921165461064247
9.3E10                    -3.2623251283984533
9.31E10                   -3.0484515043399103
9.32E10                   -2.850399872781075
9.33E10                   -2.6682416237544353
9.34E10                   -2.5021391952547924
9.35E10                   -2.352276782037392
9.36E10                   -2.21880148399963
9.37E10                   -2.101776815688459
9.38E10                   -2.0011495010909486
9.39E10                   -1.9167296573154793
9.4E10                    -1.8481836801759584
9.41E10                   -1.7950384022461034
9.42E10                   -1.7566944818138153
9.43E10                   -1.7324465830983546
9.44E10                   -1.7215077732781885
9.45E10                   -1.723035690651418
9.46E10                   -1.7361583856891865
9.47E10                   -1.7599982281161104
9.48E10                   -1.7936928237114316
9.49E10                   -1.836412417245878
9.5E10                    -1.8873737152315015
9.51E10                   -1.9458504102860361
9.52E10                   -2.0111809166980628
9.53E10                   -2.082773940321191
9.54E10                   -2.160112521937503
9.55E10                   -2.242757132645111
9.56E10                   -2.330348282607217
9.57E10                   -2.4226089459557816
9.58E10                   -2.5193469130913106
9.59E10                   -2.6204569573034093
9.6E10                    -2.7259224373479456
9.61E10                   -2.8358156355254405
9.62E10                   -2.9502957304035213
9.63E10                   -3.069602802276316
9.64E10                   -3.1940456536463078
9.65E10                   -3.3239805082251865
9.66E10                   -3.459776897134839
9.67E10                   -3.6017664190058065
9.68E10                   -3.7501699052795807
9.69E10                   -3.904999399633064
9.7E10                    -4.065934101711276
