% Model:              quadripolo.mph
% Version:            COMSOL 5.5.0.292
% Date:               May 1 2020, 09:13
% Dimension:          1
% Nodes:              153
% Expressions:        1
% Description:        Global
% x                       Height
9.2E10                    -4.719889972595933
9.21E10                   -5.198373576377453
9.22E10                   -5.613142031684624
9.23E10                   -5.980249059852612
9.24E10                   -6.317223686430241
9.25E10                   -6.6402367675509115
9.26E10                   -6.963249447162881
9.27E10                   -7.298056083034994
9.28E10                   -7.654660554680451
9.29E10                   -8.041727454973536
9.3E10                    -8.467005962410274
9.31E10                   -8.937698239687416
9.32E10                   -9.460775925648495
9.33E10                   -10.043259145014048
9.34E10                   -10.69247209693925
9.35E10                   -11.416279331293582
9.36E10                   -12.223280904366291
9.37E10                   -13.12288263048497
9.38E10                   -14.125008392217602
9.39E10                   -15.238858133675441
9.4E10                    -16.46923434718943
9.41E10                   -17.806927080978554
9.42E10                   -19.205795043244514
9.43E10                   -20.537130028935387
9.44E10                   -21.53851903583668
9.45E10                   -21.87668241829543
9.46E10                   -21.428480681318156
9.47E10                   -20.423374378534046
9.48E10                   -19.18816942916601
9.49E10                   -17.93191947491882
9.5E10                    -16.744508371024
9.51E10                   -15.652647334345373
9.52E10                   -14.656958990055626
9.53E10                   -13.749124480276008
9.54E10                   -12.918825467818223
9.55E10                   -12.156304759066787
9.56E10                   -11.453161062221572
9.57E10                   -10.802463849606585
9.58E10                   -10.198629107081615
9.59E10                   -9.63723234548983
9.6E10                    -9.11482694900266
9.61E10                   -8.628791393169209
9.62E10                   -8.177210613338616
9.63E10                   -7.758789468392901
9.64E10                   -7.3727933787498205
9.65E10                   -7.019010037659
9.66E10                   -6.6977253556106575
9.67E10                   -6.409705931095479
9.68E10                   -6.156179123469606
9.69E10                   -5.938800256646227
9.7E10                    -5.75959488408369
9.2E10                    -5.880458838505286
9.21E10                   -5.176175605325284
9.22E10                   -4.6639865359498005
9.23E10                   -4.271568044078561
9.24E10                   -3.9567891977205565
9.25E10                   -3.6941199492616588
9.26E10                   -3.4676376913925244
9.27E10                   -3.267230089102936
9.28E10                   -3.0864335707966246
9.29E10                   -2.9211481728780035
9.3E10                    -2.7688408571051957
9.31E10                   -2.628030831039671
9.32E10                   -2.497943160491621
9.33E10                   -2.378266386376769
9.34E10                   -2.2689771691933327
9.35E10                   -2.1702105200670814
9.36E10                   -2.0821631541978887
9.37E10                   -2.0050226508004476
9.38E10                   -1.938917923255738
9.39E10                   -1.8838878798973964
9.4E10                    -1.839865664088307
9.41E10                   -1.8066759070938743
9.42E10                   -1.7840423031600472
9.43E10                   -1.771602725965671
9.44E10                   -1.7689291668254952
9.45E10                   -1.775550028454784
9.46E10                   -1.7909727337544017
9.47E10                   -1.8147051483664867
9.48E10                   -1.8462748951518897
9.49E10                   -1.885246189600109
9.5E10                    -1.9312342965811884
9.51E10                   -1.9839180727832704
9.52E10                   -2.0430513095273857
9.53E10                   -2.1084737382493217
9.54E10                   -2.180122627123366
9.55E10                   -2.258045907828526
9.56E10                   -2.3424177513903706
9.57E10                   -2.4335574823848933
9.58E10                   -2.5319526961919827
9.59E10                   -2.6382874314497946
9.6E10                    -2.7534762478781953
9.61E10                   -2.878705057599331
9.62E10                   -3.0154795356945217
9.63E10                   -3.165681863110593
9.64E10                   -3.3316363943699754
9.65E10                   -3.516184553931539
9.66E10                   -3.722768820341504
9.67E10                   -3.9555250686492376
9.68E10                   -4.219381912956442
9.69E10                   -4.5201653027365065
9.7E10                    -4.864707058537526
9.2E10                    -5.996070750525472
9.21E10                   -6.334852876474777
9.22E10                   -6.68917539216466
9.23E10                   -7.049912397770624
9.24E10                   -7.414906964213164
9.25E10                   -7.785598856104258
9.26E10                   -8.165315575786321
9.27E10                   -8.55842387267488
9.28E10                   -8.969924006259392
9.29E10                   -9.405274660128262
9.3E10                    -9.870342149058649
9.31E10                   -10.371421703497504
9.32E10                   -10.915306436238161
9.33E10                   -11.509393310960828
9.34E10                   -12.161819842686432
9.35E10                   -12.881619709743434
9.36E10                   -13.678862289287725
9.37E10                   -14.564678561869703
9.38E10                   -15.550918299788082
9.39E10                   -16.648791819661866
9.4E10                    -17.86488716012269
9.41E10                   -19.190711473738432
9.42E10                   -20.577666726847053
9.43E10                   -21.887564263481686
9.44E10                   -22.840951987245074
9.45E10                   -23.099340167467282
9.46E10                   -22.57014739402539
9.47E10                   -21.516977859637002
9.48E10                   -20.27070242694442
9.49E10                   -19.029893890289788
9.5E10                    -17.87521950587051
9.51E10                   -16.827774272001378
9.52E10                   -15.884708917833727
9.53E10                   -15.03515291772423
9.54E10                   -14.266532380221658
9.55E10                   -13.56686467628215
9.56E10                   -12.92546090261391
9.57E10                   -12.333027053947276
9.58E10                   -11.78155961124981
9.59E10                   -11.264190960201434
9.6E10                    -10.775043208457415
9.61E10                   -10.309110014751514
9.62E10                   -9.862170587448135
9.63E10                   -9.430734058047035
9.64E10                   -9.012010184359454
9.65E10                   -8.603901336795733
9.66E10                   -8.20500991888957
9.67E10                   -7.814654332455481
9.68E10                   -7.432885190540658
9.69E10                   -7.060491798630033
9.7E10                    -6.698987286907937
