% Model:              quadripolo.mph
% Version:            COMSOL 5.5.0.292
% Date:               May 1 2020, 09:26
% Dimension:          1
% Nodes:              153
% Expressions:        1
% Description:        Global
% x                       Height
9.2E10                    -5.881548755125118
9.21E10                   -5.1770763716598065
9.22E10                   -4.664731918038351
9.23E10                   -4.2721735925100095
9.24E10                   -3.9572614263262436
9.25E10                   -3.6944606472594095
9.26E10                   -3.4678461792581388
9.27E10                   -3.2673045092253727
9.28E10                   -3.086371685071782
9.29E10                   -2.920947889013891
9.3E10                    -2.768500594374497
9.31E10                   -2.6275497832457404
9.32E10                   -2.4973214871839606
9.33E10                   -2.377505349326015
9.34E10                   -2.2680792236605174
9.35E10                   -2.1691793664855337
9.36E10                   -2.0810037539933846
9.37E10                   -2.003741209363964
9.38E10                   -1.9375218430481036
9.39E10                   -1.8823856869986157
9.4E10                    -1.8382669119800974
9.41E10                   -1.8049910619463678
9.42E10                   -1.7822826152696494
9.43E10                   -1.7697800922033489
9.44E10                   -1.7670559889729922
9.45E10                   -1.7736390721242026
9.46E10                   -1.789036992227662
9.47E10                   -1.812757715190495
9.48E10                   -1.8443288487292029
9.49E10                   -1.8833144923750353
9.5E10                    -1.9293297107853415
9.51E10                   -1.9820530941188794
9.52E10                   -2.041238119667963
9.53E10                   -2.1067241766471687
9.54E10                   -2.178448182368069
9.55E10                   -2.2564577286940426
9.56E10                   -2.34092667776693
9.57E10                   -2.4321740965207397
9.58E10                   -2.5306873950812507
9.59E10                   -2.6371505218190574
9.6E10                    -2.7524780660841737
9.61E10                   -2.8778561179030904
9.62E10                   -3.014790711911507
9.63E10                   -3.1651646106885107
9.64E10                   -3.3313030226952076
9.65E10                   -3.5160485624337174
9.66E10                   -3.722845317165975
9.67E10                   -3.955831298033102
9.68E10                   -4.219937928019411
9.69E10                   -4.52099483591491
9.7E10                    -4.865838665143791

9.2E10                    -5.95812693821365
9.21E10                   -7.18033798927505
9.22E10                   -8.33955693105233
9.23E10                   -9.42999703659154
9.24E10                   -10.4529099813978
9.25E10                   -11.4134273970762
9.26E10                   -12.3188719130914
9.27E10                   -13.1778054843480
9.28E10                   -13.9994402433379
9.29E10                   -14.7932331581971
9.3E10                    -15.5685824637769
9.31E10                   -16.3345860494755
9.32E10                   -17.0998361659403
9.33E10                   -17.8722250622272
9.34E10                   -18.6587289279661
9.35E10                   -19.4651245345775
9.36E10                   -20.2955734104621
9.37E10                   -21.1519811156530
9.38E10                   -22.0330070649211
9.39E10                   -22.9325803686911
9.4E10                    -23.8378225752369
9.41E10                   -24.7265145849398
9.42E10                   -25.5648832567622
9.43E10                   -26.3076471918629
9.44E10                   -26.9033389229866
9.45E10                   -27.3067649900223
9.46E10                   -26.9189703743665
9.47E10                   -26.3248319633712
9.48E10                   -25.5607145445438
9.49E10                   -24.6757909746267
9.5E10                    -23.7174183579390
9.51E10                   -22.7230857796707
9.52E10                   -21.7187383824947
9.53E10                   -20.7204861574161
9.54E10                   -19.7372368684115
9.55E10                   -18.7730704083256
9.56E10                   -17.8290237188544
9.57E10                   -16.9043228746106
9.58E10                   -15.9971990542288
9.59E10                   -15.1054204129208
9.6E10                    -14.2266396816539
9.61E10                   -13.3586257066086
9.62E10                   -12.4994231416720
9.63E10                   -11.6474679648322
9.64E10                   -10.8016755127175
9.65E10                   -9.96151044979008
9.66E10                   -9.12704308104011
9.67E10                   -8.29899268526625
9.68E10                   -7.47875545391140
9.69E10                   -6.66841184623047
9.7E10                    -5.87070571859893

9.2E10                    -5.337028268389485
9.21E10                   -5.046591464340087
9.22E10                   -4.902268236137857
9.23E10                   -4.861254356477804
9.24E10                   -4.899140696201084
9.25E10                   -5.001972070231492
9.26E10                   -5.162015848307952
9.27E10                   -5.375435086156348
9.28E10                   -5.640974781988588
9.29E10                   -5.959208812779857
9.3E10                    -6.332112382854489
9.31E10                   -6.762836177500962
9.32E10                   -7.2556178717101085
9.33E10                   -7.815799828468189
9.34E10                   -8.449940720553235
9.35E10                   -9.166017836734687
9.36E10                   -9.97371383069899
9.37E10                   -10.88475334261023
9.38E10                   -11.91316024443564
9.39E10                   -13.075026434082273
9.4E10                    -14.386574304676083
9.41E10                   -15.856981537353814
9.42E10                   -17.46620447910772
9.43E10                   -19.10548245389912
9.44E10                   -20.464805007181823
9.45E10                   -21.022679898862478
9.46E10                   -20.50965591855148
9.47E10                   -19.284644114555878
9.48E10                   -17.84745063881312
9.49E10                   -16.462512764950677
9.5E10                    -15.214276205749647
9.51E10                   -14.113089671706183
9.52E10                   -13.146120609351842
9.53E10                   -12.295777834474094
9.54E10                   -11.54554727057369
9.55E10                   -10.881479672998156
9.56E10                   -10.292270998105026
9.57E10                   -9.768945403073495
9.58E10                   -9.304477831104172
9.59E10                   -8.893459822713659
9.6E10                    -8.531832269694258
9.61E10                   -8.216682853900362
9.62E10                   -7.946098788799486
9.63E10                   -7.719064594970875
9.64E10                   -7.5353954061333415
9.65E10                   -7.395697036795027
9.66E10                   -7.301344102002282
9.67E10                   -7.254466569547452
9.68E10                   -7.2579330501290515
9.69E10                   -7.3153157058539815
9.7E10                    -7.430816667302343
